
     Program PWSCF v.7.2 starts on 25May2023 at 17:51: 9 

     This program is part of the open-source Quantum ESPRESSO suite
     for quantum simulation of materials; please cite
         "P. Giannozzi et al., J. Phys.:Condens. Matter 21 395502 (2009);
         "P. Giannozzi et al., J. Phys.:Condens. Matter 29 465901 (2017);
         "P. Giannozzi et al., J. Chem. Phys. 152 154105 (2020);
          URL http://www.quantum-espresso.org", 
     in publications or presentations arising from this work. More details at
     http://www.quantum-espresso.org/quote

     Parallel version (MPI), running on     2 processors

     MPI processes distributed on     1 nodes
     431 MiB available memory on the printing compute node when the environment starts

     Waiting for input...
     Reading input from standard input

     Current dimensions of program PWSCF are:
     Max number of different atomic species (ntypx) = 10
     Max number of k-points (npk) =  40000
     Max angular momentum in pseudopotentials (lmaxx) =  4

     IMPORTANT: XC functional enforced from input :
     Exchange-correlation= SCAN
                           (   0   0   0   0   0 263 267)
     Any further DFT definition will be discarded
     Please, verify this is what you really want

     Message from routine setup :
     BEWARE: nonlinear core correction is not consistent with meta-GGA

     R & G space division:  proc/nbgrp/npool/nimage =       2
     Subspace diagonalization in iterative solution of the eigenvalue problem:
     a serial algorithm will be used


     Parallelization info
     --------------------
     sticks:   dense  smooth     PW     G-vecs:    dense   smooth      PW
     Min         798     798    231                21043    21043    3307
     Max         799     799    232                21044    21044    3308
     Sum        1597    1597    463                42087    42087    6615

     Using Slab Decomposition



     bravais-lattice index     =            2
     lattice parameter (alat)  =      10.2620  a.u.
     unit-cell volume          =     270.1693 (a.u.)^3
     number of atoms/cell      =            2
     number of atomic types    =            1
     number of electrons       =         8.00
     number of Kohn-Sham states=            5
     kinetic-energy cutoff     =     110.0000  Ry
     charge density cutoff     =     440.0000  Ry
     scf convergence threshold =      1.0E-10
     mixing beta               =       0.7000
     number of iterations used =            8  plain     mixing
     Exchange-correlation= SCAN
                           (   0   0   0   0   0 263 267)

     celldm(1)=  10.262000  celldm(2)=   0.000000  celldm(3)=   0.000000
     celldm(4)=   0.000000  celldm(5)=   0.000000  celldm(6)=   0.000000

     crystal axes: (cart. coord. in units of alat)
               a(1) = (  -0.500000   0.000000   0.500000 )  
               a(2) = (   0.000000   0.500000   0.500000 )  
               a(3) = (  -0.500000   0.500000   0.000000 )  

     reciprocal axes: (cart. coord. in units 2 pi/alat)
               b(1) = ( -1.000000 -1.000000  1.000000 )  
               b(2) = (  1.000000  1.000000  1.000000 )  
               b(3) = ( -1.000000  1.000000 -1.000000 )  


     PseudoPot. # 1 for Si read from file:
     ../../pseudo/Si.pbe_PseudoDojo.UPF
     MD5 check sum: 02fab3f35e82123ef5bf1cb05d5b1a5e
     Pseudo is Norm-conserving + core correction, Zval =  4.0
     Generated using ONCVPSP code by D. R. Hamann
     Using radial grid of 1510 points,  6 beta functions with: 
                l(1) =   0
                l(2) =   0
                l(3) =   1
                l(4) =   1
                l(5) =   2
                l(6) =   2

     atomic species   valence    mass     pseudopotential
        Si             4.00    28.08600     Si( 1.00)

     48 Sym. Ops., with inversion, found (24 have fractional translation)


                                    s                        frac. trans.

      isym =  1     identity                                     

 cryst.   s( 1) = (     1          0          0      )
                  (     0          1          0      )
                  (     0          0          1      )

 cart.    s( 1) = (  1.0000000  0.0000000  0.0000000 )
                  (  0.0000000  1.0000000  0.0000000 )
                  (  0.0000000  0.0000000  1.0000000 )


      isym =  2     180 deg rotation - cart. axis [0,0,1]        

 cryst.   s( 2) = (     0          1         -1      )
                  (     1          0         -1      )
                  (     0          0         -1      )

 cart.    s( 2) = ( -1.0000000  0.0000000  0.0000000 )
                  (  0.0000000 -1.0000000  0.0000000 )
                  (  0.0000000  0.0000000  1.0000000 )


      isym =  3     180 deg rotation - cart. axis [0,1,0]        

 cryst.   s( 3) = (    -1          0          0      )
                  (    -1          0          1      )
                  (    -1          1          0      )

 cart.    s( 3) = ( -1.0000000  0.0000000  0.0000000 )
                  (  0.0000000  1.0000000  0.0000000 )
                  (  0.0000000  0.0000000 -1.0000000 )


      isym =  4     180 deg rotation - cart. axis [1,0,0]        

 cryst.   s( 4) = (     0         -1          1      )
                  (     0         -1          0      )
                  (     1         -1          0      )

 cart.    s( 4) = (  1.0000000  0.0000000  0.0000000 )
                  (  0.0000000 -1.0000000  0.0000000 )
                  (  0.0000000  0.0000000 -1.0000000 )


      isym =  5     180 deg rotation - cart. axis [1,1,0]        

 cryst.   s( 5) = (     0         -1          0      )    f =(  0.2500000 )
                  (    -1          0          0      )       (  0.2500000 )
                  (     0          0         -1      )       (  0.2500000 )

 cart.    s( 5) = (  0.0000000  1.0000000  0.0000000 )    f =( -0.2500000 )
                  (  1.0000000  0.0000000  0.0000000 )       (  0.2500000 )
                  (  0.0000000  0.0000000 -1.0000000 )       (  0.2500000 )


      isym =  6     180 deg rotation - cart. axis [1,-1,0]       

 cryst.   s( 6) = (    -1          0          1      )    f =(  0.2500000 )
                  (     0         -1          1      )       (  0.2500000 )
                  (     0          0          1      )       (  0.2500000 )

 cart.    s( 6) = (  0.0000000 -1.0000000  0.0000000 )    f =( -0.2500000 )
                  ( -1.0000000  0.0000000  0.0000000 )       (  0.2500000 )
                  (  0.0000000  0.0000000 -1.0000000 )       (  0.2500000 )


      isym =  7      90 deg rotation - cart. axis [0,0,-1]       

 cryst.   s( 7) = (     0          1          0      )    f =(  0.2500000 )
                  (     0          1         -1      )       (  0.2500000 )
                  (    -1          1          0      )       (  0.2500000 )

 cart.    s( 7) = (  0.0000000  1.0000000  0.0000000 )    f =( -0.2500000 )
                  ( -1.0000000  0.0000000  0.0000000 )       (  0.2500000 )
                  (  0.0000000  0.0000000  1.0000000 )       (  0.2500000 )


      isym =  8      90 deg rotation - cart. axis [0,0,1]        

 cryst.   s( 8) = (     1          0         -1      )    f =(  0.2500000 )
                  (     1          0          0      )       (  0.2500000 )
                  (     1         -1          0      )       (  0.2500000 )

 cart.    s( 8) = (  0.0000000 -1.0000000  0.0000000 )    f =( -0.2500000 )
                  (  1.0000000  0.0000000  0.0000000 )       (  0.2500000 )
                  (  0.0000000  0.0000000  1.0000000 )       (  0.2500000 )


      isym =  9     180 deg rotation - cart. axis [1,0,1]        

 cryst.   s( 9) = (    -1          0          0      )    f =(  0.2500000 )
                  (     0          0         -1      )       (  0.2500000 )
                  (     0         -1          0      )       (  0.2500000 )

 cart.    s( 9) = (  0.0000000  0.0000000  1.0000000 )    f =( -0.2500000 )
                  (  0.0000000 -1.0000000  0.0000000 )       (  0.2500000 )
                  (  1.0000000  0.0000000  0.0000000 )       (  0.2500000 )


      isym = 10     180 deg rotation - cart. axis [-1,0,1]       

 cryst.   s(10) = (     1          0          0      )    f =(  0.2500000 )
                  (     1         -1          0      )       (  0.2500000 )
                  (     1          0         -1      )       (  0.2500000 )

 cart.    s(10) = (  0.0000000  0.0000000 -1.0000000 )    f =( -0.2500000 )
                  (  0.0000000 -1.0000000  0.0000000 )       (  0.2500000 )
                  ( -1.0000000  0.0000000  0.0000000 )       (  0.2500000 )


      isym = 11      90 deg rotation - cart. axis [0,1,0]        

 cryst.   s(11) = (     0          1         -1      )    f =(  0.2500000 )
                  (    -1          1          0      )       (  0.2500000 )
                  (     0          1          0      )       (  0.2500000 )

 cart.    s(11) = (  0.0000000  0.0000000  1.0000000 )    f =( -0.2500000 )
                  (  0.0000000  1.0000000  0.0000000 )       (  0.2500000 )
                  ( -1.0000000  0.0000000  0.0000000 )       (  0.2500000 )


      isym = 12      90 deg rotation - cart. axis [0,-1,0]       

 cryst.   s(12) = (     0         -1          1      )    f =(  0.2500000 )
                  (     0          0          1      )       (  0.2500000 )
                  (    -1          0          1      )       (  0.2500000 )

 cart.    s(12) = (  0.0000000  0.0000000 -1.0000000 )    f =( -0.2500000 )
                  (  0.0000000  1.0000000  0.0000000 )       (  0.2500000 )
                  (  1.0000000  0.0000000  0.0000000 )       (  0.2500000 )


      isym = 13     180 deg rotation - cart. axis [0,1,1]        

 cryst.   s(13) = (    -1          1          0      )    f =(  0.2500000 )
                  (     0          1          0      )       (  0.2500000 )
                  (     0          1         -1      )       (  0.2500000 )

 cart.    s(13) = ( -1.0000000  0.0000000  0.0000000 )    f =( -0.2500000 )
                  (  0.0000000  0.0000000  1.0000000 )       (  0.2500000 )
                  (  0.0000000  1.0000000  0.0000000 )       (  0.2500000 )


      isym = 14     180 deg rotation - cart. axis [0,1,-1]       

 cryst.   s(14) = (     0          0         -1      )    f =(  0.2500000 )
                  (     0         -1          0      )       (  0.2500000 )
                  (    -1          0          0      )       (  0.2500000 )

 cart.    s(14) = ( -1.0000000  0.0000000  0.0000000 )    f =( -0.2500000 )
                  (  0.0000000  0.0000000 -1.0000000 )       (  0.2500000 )
                  (  0.0000000 -1.0000000  0.0000000 )       (  0.2500000 )


      isym = 15      90 deg rotation - cart. axis [-1,0,0]       

 cryst.   s(15) = (     0          0          1      )    f =(  0.2500000 )
                  (    -1          0          1      )       (  0.2500000 )
                  (     0         -1          1      )       (  0.2500000 )

 cart.    s(15) = (  1.0000000  0.0000000  0.0000000 )    f =( -0.2500000 )
                  (  0.0000000  0.0000000  1.0000000 )       (  0.2500000 )
                  (  0.0000000 -1.0000000  0.0000000 )       (  0.2500000 )


      isym = 16      90 deg rotation - cart. axis [1,0,0]        

 cryst.   s(16) = (     1         -1          0      )    f =(  0.2500000 )
                  (     1          0         -1      )       (  0.2500000 )
                  (     1          0          0      )       (  0.2500000 )

 cart.    s(16) = (  1.0000000  0.0000000  0.0000000 )    f =( -0.2500000 )
                  (  0.0000000  0.0000000 -1.0000000 )       (  0.2500000 )
                  (  0.0000000  1.0000000  0.0000000 )       (  0.2500000 )


      isym = 17     120 deg rotation - cart. axis [-1,-1,-1]     

 cryst.   s(17) = (    -1          0          1      )
                  (    -1          1          0      )
                  (    -1          0          0      )

 cart.    s(17) = (  0.0000000  1.0000000  0.0000000 )
                  (  0.0000000  0.0000000  1.0000000 )
                  (  1.0000000  0.0000000  0.0000000 )


      isym = 18     120 deg rotation - cart. axis [-1,1,1]       

 cryst.   s(18) = (     0          1          0      )
                  (     0          0          1      )
                  (     1          0          0      )

 cart.    s(18) = (  0.0000000 -1.0000000  0.0000000 )
                  (  0.0000000  0.0000000  1.0000000 )
                  ( -1.0000000  0.0000000  0.0000000 )


      isym = 19     120 deg rotation - cart. axis [1,1,-1]       

 cryst.   s(19) = (     1          0         -1      )
                  (     0          0         -1      )
                  (     0          1         -1      )

 cart.    s(19) = (  0.0000000  1.0000000  0.0000000 )
                  (  0.0000000  0.0000000 -1.0000000 )
                  ( -1.0000000  0.0000000  0.0000000 )


      isym = 20     120 deg rotation - cart. axis [1,-1,1]       

 cryst.   s(20) = (     0         -1          0      )
                  (     1         -1          0      )
                  (     0         -1          1      )

 cart.    s(20) = (  0.0000000 -1.0000000  0.0000000 )
                  (  0.0000000  0.0000000 -1.0000000 )
                  (  1.0000000  0.0000000  0.0000000 )


      isym = 21     120 deg rotation - cart. axis [1,1,1]        

 cryst.   s(21) = (     0          0         -1      )
                  (     0          1         -1      )
                  (     1          0         -1      )

 cart.    s(21) = (  0.0000000  0.0000000  1.0000000 )
                  (  1.0000000  0.0000000  0.0000000 )
                  (  0.0000000  1.0000000  0.0000000 )


      isym = 22     120 deg rotation - cart. axis [-1,1,-1]      

 cryst.   s(22) = (    -1          1          0      )
                  (    -1          0          0      )
                  (    -1          0          1      )

 cart.    s(22) = (  0.0000000  0.0000000  1.0000000 )
                  ( -1.0000000  0.0000000  0.0000000 )
                  (  0.0000000 -1.0000000  0.0000000 )


      isym = 23     120 deg rotation - cart. axis [1,-1,-1]      

 cryst.   s(23) = (     0          0          1      )
                  (     1          0          0      )
                  (     0          1          0      )

 cart.    s(23) = (  0.0000000  0.0000000 -1.0000000 )
                  ( -1.0000000  0.0000000  0.0000000 )
                  (  0.0000000  1.0000000  0.0000000 )


      isym = 24     120 deg rotation - cart. axis [-1,-1,1]      

 cryst.   s(24) = (     1         -1          0      )
                  (     0         -1          1      )
                  (     0         -1          0      )

 cart.    s(24) = (  0.0000000  0.0000000 -1.0000000 )
                  (  1.0000000  0.0000000  0.0000000 )
                  (  0.0000000 -1.0000000  0.0000000 )


      isym = 25     inversion                                    

 cryst.   s(25) = (    -1          0          0      )    f =(  0.2500000 )
                  (     0         -1          0      )       (  0.2500000 )
                  (     0          0         -1      )       (  0.2500000 )

 cart.    s(25) = ( -1.0000000  0.0000000  0.0000000 )    f =( -0.2500000 )
                  (  0.0000000 -1.0000000  0.0000000 )       (  0.2500000 )
                  (  0.0000000  0.0000000 -1.0000000 )       (  0.2500000 )


      isym = 26     inv. 180 deg rotation - cart. axis [0,0,1]   

 cryst.   s(26) = (     0         -1          1      )    f =(  0.2500000 )
                  (    -1          0          1      )       (  0.2500000 )
                  (     0          0          1      )       (  0.2500000 )

 cart.    s(26) = (  1.0000000  0.0000000  0.0000000 )    f =( -0.2500000 )
                  (  0.0000000  1.0000000  0.0000000 )       (  0.2500000 )
                  (  0.0000000  0.0000000 -1.0000000 )       (  0.2500000 )


      isym = 27     inv. 180 deg rotation - cart. axis [0,1,0]   

 cryst.   s(27) = (     1          0          0      )    f =(  0.2500000 )
                  (     1          0         -1      )       (  0.2500000 )
                  (     1         -1          0      )       (  0.2500000 )

 cart.    s(27) = (  1.0000000  0.0000000  0.0000000 )    f =( -0.2500000 )
                  (  0.0000000 -1.0000000  0.0000000 )       (  0.2500000 )
                  (  0.0000000  0.0000000  1.0000000 )       (  0.2500000 )


      isym = 28     inv. 180 deg rotation - cart. axis [1,0,0]   

 cryst.   s(28) = (     0          1         -1      )    f =(  0.2500000 )
                  (     0          1          0      )       (  0.2500000 )
                  (    -1          1          0      )       (  0.2500000 )

 cart.    s(28) = ( -1.0000000  0.0000000  0.0000000 )    f =( -0.2500000 )
                  (  0.0000000  1.0000000  0.0000000 )       (  0.2500000 )
                  (  0.0000000  0.0000000  1.0000000 )       (  0.2500000 )


      isym = 29     inv. 180 deg rotation - cart. axis [1,1,0]   

 cryst.   s(29) = (     0          1          0      )
                  (     1          0          0      )
                  (     0          0          1      )

 cart.    s(29) = (  0.0000000 -1.0000000  0.0000000 )
                  ( -1.0000000  0.0000000  0.0000000 )
                  (  0.0000000  0.0000000  1.0000000 )


      isym = 30     inv. 180 deg rotation - cart. axis [1,-1,0]  

 cryst.   s(30) = (     1          0         -1      )
                  (     0          1         -1      )
                  (     0          0         -1      )

 cart.    s(30) = (  0.0000000  1.0000000  0.0000000 )
                  (  1.0000000  0.0000000  0.0000000 )
                  (  0.0000000  0.0000000  1.0000000 )


      isym = 31     inv.  90 deg rotation - cart. axis [0,0,-1]  

 cryst.   s(31) = (     0         -1          0      )
                  (     0         -1          1      )
                  (     1         -1          0      )

 cart.    s(31) = (  0.0000000 -1.0000000  0.0000000 )
                  (  1.0000000  0.0000000  0.0000000 )
                  (  0.0000000  0.0000000 -1.0000000 )


      isym = 32     inv.  90 deg rotation - cart. axis [0,0,1]   

 cryst.   s(32) = (    -1          0          1      )
                  (    -1          0          0      )
                  (    -1          1          0      )

 cart.    s(32) = (  0.0000000  1.0000000  0.0000000 )
                  ( -1.0000000  0.0000000  0.0000000 )
                  (  0.0000000  0.0000000 -1.0000000 )


      isym = 33     inv. 180 deg rotation - cart. axis [1,0,1]   

 cryst.   s(33) = (     1          0          0      )
                  (     0          0          1      )
                  (     0          1          0      )

 cart.    s(33) = (  0.0000000  0.0000000 -1.0000000 )
                  (  0.0000000  1.0000000  0.0000000 )
                  ( -1.0000000  0.0000000  0.0000000 )


      isym = 34     inv. 180 deg rotation - cart. axis [-1,0,1]  

 cryst.   s(34) = (    -1          0          0      )
                  (    -1          1          0      )
                  (    -1          0          1      )

 cart.    s(34) = (  0.0000000  0.0000000  1.0000000 )
                  (  0.0000000  1.0000000  0.0000000 )
                  (  1.0000000  0.0000000  0.0000000 )


      isym = 35     inv.  90 deg rotation - cart. axis [0,1,0]   

 cryst.   s(35) = (     0         -1          1      )
                  (     1         -1          0      )
                  (     0         -1          0      )

 cart.    s(35) = (  0.0000000  0.0000000 -1.0000000 )
                  (  0.0000000 -1.0000000  0.0000000 )
                  (  1.0000000  0.0000000  0.0000000 )


      isym = 36     inv.  90 deg rotation - cart. axis [0,-1,0]  

 cryst.   s(36) = (     0          1         -1      )
                  (     0          0         -1      )
                  (     1          0         -1      )

 cart.    s(36) = (  0.0000000  0.0000000  1.0000000 )
                  (  0.0000000 -1.0000000  0.0000000 )
                  ( -1.0000000  0.0000000  0.0000000 )


      isym = 37     inv. 180 deg rotation - cart. axis [0,1,1]   

 cryst.   s(37) = (     1         -1          0      )
                  (     0         -1          0      )
                  (     0         -1          1      )

 cart.    s(37) = (  1.0000000  0.0000000  0.0000000 )
                  (  0.0000000  0.0000000 -1.0000000 )
                  (  0.0000000 -1.0000000  0.0000000 )


      isym = 38     inv. 180 deg rotation - cart. axis [0,1,-1]  

 cryst.   s(38) = (     0          0          1      )
                  (     0          1          0      )
                  (     1          0          0      )

 cart.    s(38) = (  1.0000000  0.0000000  0.0000000 )
                  (  0.0000000  0.0000000  1.0000000 )
                  (  0.0000000  1.0000000  0.0000000 )


      isym = 39     inv.  90 deg rotation - cart. axis [-1,0,0]  

 cryst.   s(39) = (     0          0         -1      )
                  (     1          0         -1      )
                  (     0          1         -1      )

 cart.    s(39) = ( -1.0000000  0.0000000  0.0000000 )
                  (  0.0000000  0.0000000 -1.0000000 )
                  (  0.0000000  1.0000000  0.0000000 )


      isym = 40     inv.  90 deg rotation - cart. axis [1,0,0]   

 cryst.   s(40) = (    -1          1          0      )
                  (    -1          0          1      )
                  (    -1          0          0      )

 cart.    s(40) = ( -1.0000000  0.0000000  0.0000000 )
                  (  0.0000000  0.0000000  1.0000000 )
                  (  0.0000000 -1.0000000  0.0000000 )


      isym = 41     inv. 120 deg rotation - cart. axis [-1,-1,-1]

 cryst.   s(41) = (     1          0         -1      )    f =(  0.2500000 )
                  (     1         -1          0      )       (  0.2500000 )
                  (     1          0          0      )       (  0.2500000 )

 cart.    s(41) = (  0.0000000 -1.0000000  0.0000000 )    f =( -0.2500000 )
                  (  0.0000000  0.0000000 -1.0000000 )       (  0.2500000 )
                  ( -1.0000000  0.0000000  0.0000000 )       (  0.2500000 )


      isym = 42     inv. 120 deg rotation - cart. axis [-1,1,1]  

 cryst.   s(42) = (     0         -1          0      )    f =(  0.2500000 )
                  (     0          0         -1      )       (  0.2500000 )
                  (    -1          0          0      )       (  0.2500000 )

 cart.    s(42) = (  0.0000000  1.0000000  0.0000000 )    f =( -0.2500000 )
                  (  0.0000000  0.0000000 -1.0000000 )       (  0.2500000 )
                  (  1.0000000  0.0000000  0.0000000 )       (  0.2500000 )


      isym = 43     inv. 120 deg rotation - cart. axis [1,1,-1]  

 cryst.   s(43) = (    -1          0          1      )    f =(  0.2500000 )
                  (     0          0          1      )       (  0.2500000 )
                  (     0         -1          1      )       (  0.2500000 )

 cart.    s(43) = (  0.0000000 -1.0000000  0.0000000 )    f =( -0.2500000 )
                  (  0.0000000  0.0000000  1.0000000 )       (  0.2500000 )
                  (  1.0000000  0.0000000  0.0000000 )       (  0.2500000 )


      isym = 44     inv. 120 deg rotation - cart. axis [1,-1,1]  

 cryst.   s(44) = (     0          1          0      )    f =(  0.2500000 )
                  (    -1          1          0      )       (  0.2500000 )
                  (     0          1         -1      )       (  0.2500000 )

 cart.    s(44) = (  0.0000000  1.0000000  0.0000000 )    f =( -0.2500000 )
                  (  0.0000000  0.0000000  1.0000000 )       (  0.2500000 )
                  ( -1.0000000  0.0000000  0.0000000 )       (  0.2500000 )


      isym = 45     inv. 120 deg rotation - cart. axis [1,1,1]   

 cryst.   s(45) = (     0          0          1      )    f =(  0.2500000 )
                  (     0         -1          1      )       (  0.2500000 )
                  (    -1          0          1      )       (  0.2500000 )

 cart.    s(45) = (  0.0000000  0.0000000 -1.0000000 )    f =( -0.2500000 )
                  ( -1.0000000  0.0000000  0.0000000 )       (  0.2500000 )
                  (  0.0000000 -1.0000000  0.0000000 )       (  0.2500000 )


      isym = 46     inv. 120 deg rotation - cart. axis [-1,1,-1] 

 cryst.   s(46) = (     1         -1          0      )    f =(  0.2500000 )
                  (     1          0          0      )       (  0.2500000 )
                  (     1          0         -1      )       (  0.2500000 )

 cart.    s(46) = (  0.0000000  0.0000000 -1.0000000 )    f =( -0.2500000 )
                  (  1.0000000  0.0000000  0.0000000 )       (  0.2500000 )
                  (  0.0000000  1.0000000  0.0000000 )       (  0.2500000 )


      isym = 47     inv. 120 deg rotation - cart. axis [1,-1,-1] 

 cryst.   s(47) = (     0          0         -1      )    f =(  0.2500000 )
                  (    -1          0          0      )       (  0.2500000 )
                  (     0         -1          0      )       (  0.2500000 )

 cart.    s(47) = (  0.0000000  0.0000000  1.0000000 )    f =( -0.2500000 )
                  (  1.0000000  0.0000000  0.0000000 )       (  0.2500000 )
                  (  0.0000000 -1.0000000  0.0000000 )       (  0.2500000 )


      isym = 48     inv. 120 deg rotation - cart. axis [-1,-1,1] 

 cryst.   s(48) = (    -1          1          0      )    f =(  0.2500000 )
                  (     0          1         -1      )       (  0.2500000 )
                  (     0          1          0      )       (  0.2500000 )

 cart.    s(48) = (  0.0000000  0.0000000  1.0000000 )    f =( -0.2500000 )
                  ( -1.0000000  0.0000000  0.0000000 )       (  0.2500000 )
                  (  0.0000000  1.0000000  0.0000000 )       (  0.2500000 )


     point group O_h (m-3m) 
     there are 10 classes
     the character table:

       E     8C3   3C2   6C4   6C2'  i     8S6   3s_h  6S4   6s_d 
A_1g   1.00  1.00  1.00  1.00  1.00  1.00  1.00  1.00  1.00  1.00
A_2g   1.00  1.00  1.00 -1.00 -1.00  1.00  1.00  1.00 -1.00 -1.00
E_g    2.00 -1.00  2.00  0.00  0.00  2.00 -1.00  2.00  0.00  0.00
T_1g   3.00  0.00 -1.00  1.00 -1.00  3.00  0.00 -1.00  1.00 -1.00
T_2g   3.00  0.00 -1.00 -1.00  1.00  3.00  0.00 -1.00 -1.00  1.00
A_1u   1.00  1.00  1.00  1.00  1.00 -1.00 -1.00 -1.00 -1.00 -1.00
A_2u   1.00  1.00  1.00 -1.00 -1.00 -1.00 -1.00 -1.00  1.00  1.00
E_u    2.00 -1.00  2.00  0.00  0.00 -2.00  1.00 -2.00  0.00  0.00
T_1u   3.00  0.00 -1.00  1.00 -1.00 -3.00  0.00  1.00 -1.00  1.00
T_2u   3.00  0.00 -1.00 -1.00  1.00 -3.00  0.00  1.00  1.00 -1.00

     the symmetry operations in each class and the name of the first element:

     E        1
          identity                                               
     8C3     17   19   20   18   24   21   22   23
          120 deg rotation - cart. axis [-1,-1,-1]               
     3C2      2    4    3
          180 deg rotation - cart. axis [0,0,1]                  
     6C4      7    8   15   16   12   11
           90 deg rotation - cart. axis [0,0,-1]                 
     6C2'     5    6   14   13   10    9
          180 deg rotation - cart. axis [1,1,0]                  
     i       25
          inversion                                              
     8S6     41   43   44   42   48   45   46   47
          inv. 120 deg rotation - cart. axis [-1,-1,-1]          
     3s_h    26   28   27
          inv. 180 deg rotation - cart. axis [0,0,1]             
     6S4     31   32   39   40   36   35
          inv.  90 deg rotation - cart. axis [0,0,-1]            
     6s_d    29   30   38   37   34   33
          inv. 180 deg rotation - cart. axis [1,1,0]             

   Cartesian axes

     site n.     atom                  positions (alat units)
         1           Si  tau(   1) = (   0.0000000   0.0000000   0.0000000  )
         2           Si  tau(   2) = (   0.2500000   0.2500000   0.2500000  )

   Crystallographic axes

     site n.     atom                  positions (cryst. coord.)
         1           Si  tau(   1) = (  0.0000000  0.0000000  0.0000000  )
         2           Si  tau(   2) = ( -0.2500000  0.7500000 -0.2500000  )

     number of k points=    72
                       cart. coord. in units 2pi/alat
        k(    1) = (   0.0000000   0.0000000   0.0000000), wk =   0.0011574
        k(    2) = (  -0.0833333   0.0833333  -0.0833333), wk =   0.0092593
        k(    3) = (  -0.1666667   0.1666667  -0.1666667), wk =   0.0092593
        k(    4) = (  -0.2500000   0.2500000  -0.2500000), wk =   0.0092593
        k(    5) = (  -0.3333333   0.3333333  -0.3333333), wk =   0.0092593
        k(    6) = (  -0.4166667   0.4166667  -0.4166667), wk =   0.0092593
        k(    7) = (   0.5000000  -0.5000000   0.5000000), wk =   0.0046296
        k(    8) = (   0.0000000   0.1666667   0.0000000), wk =   0.0069444
        k(    9) = (  -0.0833333   0.2500000  -0.0833333), wk =   0.0277778
        k(   10) = (  -0.1666667   0.3333333  -0.1666667), wk =   0.0277778
        k(   11) = (  -0.2500000   0.4166667  -0.2500000), wk =   0.0277778
        k(   12) = (  -0.3333333   0.5000000  -0.3333333), wk =   0.0277778
        k(   13) = (   0.5833333  -0.4166667   0.5833333), wk =   0.0277778
        k(   14) = (   0.5000000  -0.3333333   0.5000000), wk =   0.0277778
        k(   15) = (   0.4166667  -0.2500000   0.4166667), wk =   0.0277778
        k(   16) = (   0.3333333  -0.1666667   0.3333333), wk =   0.0277778
        k(   17) = (   0.2500000  -0.0833333   0.2500000), wk =   0.0277778
        k(   18) = (   0.1666667  -0.0000000   0.1666667), wk =   0.0138889
        k(   19) = (   0.0000000   0.3333333   0.0000000), wk =   0.0069444
        k(   20) = (  -0.0833333   0.4166667  -0.0833333), wk =   0.0277778
        k(   21) = (  -0.1666667   0.5000000  -0.1666667), wk =   0.0277778
        k(   22) = (  -0.2500000   0.5833333  -0.2500000), wk =   0.0277778
        k(   23) = (   0.6666667  -0.3333333   0.6666667), wk =   0.0277778
        k(   24) = (   0.5833333  -0.2500000   0.5833333), wk =   0.0277778
        k(   25) = (   0.5000000  -0.1666667   0.5000000), wk =   0.0277778
        k(   26) = (   0.4166667  -0.0833333   0.4166667), wk =   0.0277778
        k(   27) = (   0.3333333   0.0000000   0.3333333), wk =   0.0138889
        k(   28) = (   0.0000000   0.5000000   0.0000000), wk =   0.0069444
        k(   29) = (  -0.0833333   0.5833333  -0.0833333), wk =   0.0277778
        k(   30) = (  -0.1666667   0.6666667  -0.1666667), wk =   0.0277778
        k(   31) = (   0.7500000  -0.2500000   0.7500000), wk =   0.0277778
        k(   32) = (   0.6666667  -0.1666667   0.6666667), wk =   0.0277778
        k(   33) = (   0.5833333  -0.0833333   0.5833333), wk =   0.0277778
        k(   34) = (   0.5000000   0.0000000   0.5000000), wk =   0.0138889
        k(   35) = (   0.0000000   0.6666667   0.0000000), wk =   0.0069444
        k(   36) = (  -0.0833333   0.7500000  -0.0833333), wk =   0.0277778
        k(   37) = (   0.8333333  -0.1666667   0.8333333), wk =   0.0277778
        k(   38) = (   0.7500000  -0.0833333   0.7500000), wk =   0.0277778
        k(   39) = (   0.6666667  -0.0000000   0.6666667), wk =   0.0138889
        k(   40) = (   0.0000000   0.8333333   0.0000000), wk =   0.0069444
        k(   41) = (   0.9166667  -0.0833333   0.9166667), wk =   0.0277778
        k(   42) = (   0.8333333   0.0000000   0.8333333), wk =   0.0138889
        k(   43) = (   0.0000000  -1.0000000   0.0000000), wk =   0.0034722
        k(   44) = (  -0.1666667   0.3333333   0.0000000), wk =   0.0277778
        k(   45) = (  -0.2500000   0.4166667  -0.0833333), wk =   0.0555556
        k(   46) = (  -0.3333333   0.5000000  -0.1666667), wk =   0.0555556
        k(   47) = (   0.5833333  -0.4166667   0.7500000), wk =   0.0555556
        k(   48) = (   0.5000000  -0.3333333   0.6666667), wk =   0.0277778
        k(   49) = (  -0.1666667   0.5000000   0.0000000), wk =   0.0277778
        k(   50) = (  -0.2500000   0.5833333  -0.0833333), wk =   0.0555556
        k(   51) = (   0.6666667  -0.3333333   0.8333333), wk =   0.0555556
        k(   52) = (   0.5833333  -0.2500000   0.7500000), wk =   0.0555556
        k(   53) = (   0.5000000  -0.1666667   0.6666667), wk =   0.0555556
        k(   54) = (   0.4166667  -0.0833333   0.5833333), wk =   0.0555556
        k(   55) = (   0.3333333   0.0000000   0.5000000), wk =   0.0277778
        k(   56) = (  -0.1666667   0.6666667  -0.0000000), wk =   0.0277778
        k(   57) = (   0.7500000  -0.2500000   0.9166667), wk =   0.0555556
        k(   58) = (   0.6666667  -0.1666667   0.8333333), wk =   0.0555556
        k(   59) = (   0.5833333  -0.0833333   0.7500000), wk =   0.0555556
        k(   60) = (   0.5000000   0.0000000   0.6666667), wk =   0.0277778
        k(   61) = (   0.8333333  -0.1666667   1.0000000), wk =   0.0277778
        k(   62) = (   0.7500000  -0.0833333   0.9166667), wk =   0.0555556
        k(   63) = (   0.6666667   0.0000000   0.8333333), wk =   0.0277778
        k(   64) = (  -0.1666667  -1.0000000  -0.0000000), wk =   0.0138889
        k(   65) = (   0.6666667  -0.3333333   1.0000000), wk =   0.0277778
        k(   66) = (   0.5833333  -0.2500000   0.9166667), wk =   0.0555556
        k(   67) = (   0.5000000  -0.1666667   0.8333333), wk =   0.0277778
        k(   68) = (   0.6666667  -0.1666667   1.0000000), wk =   0.0277778
        k(   69) = (   0.5833333  -0.0833333   0.9166667), wk =   0.0555556
        k(   70) = (   0.5000000   0.0000000   0.8333333), wk =   0.0277778
        k(   71) = (  -0.3333333  -1.0000000   0.0000000), wk =   0.0138889
        k(   72) = (  -0.5000000  -1.0000000   0.0000000), wk =   0.0069444

                       cryst. coord.
        k(    1) = (   0.0000000   0.0000000   0.0000000), wk =   0.0011574
        k(    2) = (   0.0000000   0.0000000   0.0833333), wk =   0.0092593
        k(    3) = (   0.0000000   0.0000000   0.1666667), wk =   0.0092593
        k(    4) = (   0.0000000   0.0000000   0.2500000), wk =   0.0092593
        k(    5) = (   0.0000000   0.0000000   0.3333333), wk =   0.0092593
        k(    6) = (   0.0000000   0.0000000   0.4166667), wk =   0.0092593
        k(    7) = (   0.0000000   0.0000000  -0.5000000), wk =   0.0046296
        k(    8) = (   0.0000000   0.0833333   0.0833333), wk =   0.0069444
        k(    9) = (   0.0000000   0.0833333   0.1666667), wk =   0.0277778
        k(   10) = (   0.0000000   0.0833333   0.2500000), wk =   0.0277778
        k(   11) = (   0.0000000   0.0833333   0.3333333), wk =   0.0277778
        k(   12) = (   0.0000000   0.0833333   0.4166667), wk =   0.0277778
        k(   13) = (   0.0000000   0.0833333  -0.5000000), wk =   0.0277778
        k(   14) = (   0.0000000   0.0833333  -0.4166667), wk =   0.0277778
        k(   15) = (   0.0000000   0.0833333  -0.3333333), wk =   0.0277778
        k(   16) = (   0.0000000   0.0833333  -0.2500000), wk =   0.0277778
        k(   17) = (   0.0000000   0.0833333  -0.1666667), wk =   0.0277778
        k(   18) = (   0.0000000   0.0833333  -0.0833333), wk =   0.0138889
        k(   19) = (   0.0000000   0.1666667   0.1666667), wk =   0.0069444
        k(   20) = (   0.0000000   0.1666667   0.2500000), wk =   0.0277778
        k(   21) = (   0.0000000   0.1666667   0.3333333), wk =   0.0277778
        k(   22) = (   0.0000000   0.1666667   0.4166667), wk =   0.0277778
        k(   23) = (   0.0000000   0.1666667  -0.5000000), wk =   0.0277778
        k(   24) = (   0.0000000   0.1666667  -0.4166667), wk =   0.0277778
        k(   25) = (   0.0000000   0.1666667  -0.3333333), wk =   0.0277778
        k(   26) = (   0.0000000   0.1666667  -0.2500000), wk =   0.0277778
        k(   27) = (   0.0000000   0.1666667  -0.1666667), wk =   0.0138889
        k(   28) = (   0.0000000   0.2500000   0.2500000), wk =   0.0069444
        k(   29) = (   0.0000000   0.2500000   0.3333333), wk =   0.0277778
        k(   30) = (   0.0000000   0.2500000   0.4166667), wk =   0.0277778
        k(   31) = (   0.0000000   0.2500000  -0.5000000), wk =   0.0277778
        k(   32) = (   0.0000000   0.2500000  -0.4166667), wk =   0.0277778
        k(   33) = (   0.0000000   0.2500000  -0.3333333), wk =   0.0277778
        k(   34) = (   0.0000000   0.2500000  -0.2500000), wk =   0.0138889
        k(   35) = (   0.0000000   0.3333333   0.3333333), wk =   0.0069444
        k(   36) = (   0.0000000   0.3333333   0.4166667), wk =   0.0277778
        k(   37) = (   0.0000000   0.3333333  -0.5000000), wk =   0.0277778
        k(   38) = (   0.0000000   0.3333333  -0.4166667), wk =   0.0277778
        k(   39) = (   0.0000000   0.3333333  -0.3333333), wk =   0.0138889
        k(   40) = (   0.0000000   0.4166667   0.4166667), wk =   0.0069444
        k(   41) = (   0.0000000   0.4166667  -0.5000000), wk =   0.0277778
        k(   42) = (   0.0000000   0.4166667  -0.4166667), wk =   0.0138889
        k(   43) = (   0.0000000  -0.5000000  -0.5000000), wk =   0.0034722
        k(   44) = (   0.0833333   0.1666667   0.2500000), wk =   0.0277778
        k(   45) = (   0.0833333   0.1666667   0.3333333), wk =   0.0555556
        k(   46) = (   0.0833333   0.1666667   0.4166667), wk =   0.0555556
        k(   47) = (   0.0833333   0.1666667  -0.5000000), wk =   0.0555556
        k(   48) = (   0.0833333   0.1666667  -0.4166667), wk =   0.0277778
        k(   49) = (   0.0833333   0.2500000   0.3333333), wk =   0.0277778
        k(   50) = (   0.0833333   0.2500000   0.4166667), wk =   0.0555556
        k(   51) = (   0.0833333   0.2500000  -0.5000000), wk =   0.0555556
        k(   52) = (   0.0833333   0.2500000  -0.4166667), wk =   0.0555556
        k(   53) = (   0.0833333   0.2500000  -0.3333333), wk =   0.0555556
        k(   54) = (   0.0833333   0.2500000  -0.2500000), wk =   0.0555556
        k(   55) = (   0.0833333   0.2500000  -0.1666667), wk =   0.0277778
        k(   56) = (   0.0833333   0.3333333   0.4166667), wk =   0.0277778
        k(   57) = (   0.0833333   0.3333333  -0.5000000), wk =   0.0555556
        k(   58) = (   0.0833333   0.3333333  -0.4166667), wk =   0.0555556
        k(   59) = (   0.0833333   0.3333333  -0.3333333), wk =   0.0555556
        k(   60) = (   0.0833333   0.3333333  -0.2500000), wk =   0.0277778
        k(   61) = (   0.0833333   0.4166667  -0.5000000), wk =   0.0277778
        k(   62) = (   0.0833333   0.4166667  -0.4166667), wk =   0.0555556
        k(   63) = (   0.0833333   0.4166667  -0.3333333), wk =   0.0277778
        k(   64) = (   0.0833333  -0.5000000  -0.4166667), wk =   0.0138889
        k(   65) = (   0.1666667   0.3333333  -0.5000000), wk =   0.0277778
        k(   66) = (   0.1666667   0.3333333  -0.4166667), wk =   0.0555556
        k(   67) = (   0.1666667   0.3333333  -0.3333333), wk =   0.0277778
        k(   68) = (   0.1666667   0.4166667  -0.4166667), wk =   0.0277778
        k(   69) = (   0.1666667   0.4166667  -0.3333333), wk =   0.0555556
        k(   70) = (   0.1666667   0.4166667  -0.2500000), wk =   0.0277778
        k(   71) = (   0.1666667  -0.5000000  -0.3333333), wk =   0.0138889
        k(   72) = (   0.2500000  -0.5000000  -0.2500000), wk =   0.0069444

     Dense  grid:    42087 G-vectors     FFT dimensions: (  60,  60,  60)

     Dynamical RAM for                 wfc:       0.20 MB

     Dynamical RAM for     wfc (w. buffer):      14.65 MB

     Dynamical RAM for           str. fact:       0.32 MB

     Dynamical RAM for           local pot:       0.00 MB

     Dynamical RAM for          nlocal pot:       1.45 MB

     Dynamical RAM for                qrad:       1.68 MB

     Dynamical RAM for          rho,v,vnew:       6.87 MB

     Dynamical RAM for               rhoin:       2.29 MB

     Dynamical RAM for            rho*nmix:      10.28 MB

     Dynamical RAM for           G-vectors:       1.36 MB

     Dynamical RAM for          h,s,v(r/c):       0.00 MB

     Dynamical RAM for          <psi|beta>:       0.00 MB

     Dynamical RAM for                 psi:       0.40 MB

     Dynamical RAM for                hpsi:       0.40 MB

     Dynamical RAM for      wfcinit/wfcrot:       0.64 MB

     Estimated static dynamical RAM per process >      34.21 MB

     Estimated max dynamical RAM per process >      45.30 MB

     Estimated total dynamical RAM >      90.60 MB

     WARNING: libxc functional with ID  263 depends
      on external parameters: check the user_guide of
      QE if you need to modify them or to check their
      default values.

     Initial potential from superposition of free atoms

     starting charge       7.9988, renormalised to       8.0000
     Starting wfcs are    8 randomized atomic wfcs

     total cpu time spent up to now is        4.9 secs

     Self-consistent Calculation

     iteration #  1     ecut=   110.00 Ry     beta= 0.70
     Davidson diagonalization with overlap

---- Real-time Memory Report at c_bands before calling an iterative solver
            62 MiB given to the printing process from OS
             0 MiB allocation reported by mallinfo(arena+hblkhd)
           372 MiB available memory on the node where the printing process lives
------------------
     ethr =  1.00E-02,  avg # of iterations =  2.9

     Threshold (ethr) on eigenvalues was too large:
     Diagonalizing with lowered threshold

     Davidson diagonalization with overlap

---- Real-time Memory Report at c_bands before calling an iterative solver
            65 MiB given to the printing process from OS
             0 MiB allocation reported by mallinfo(arena+hblkhd)
           375 MiB available memory on the node where the printing process lives
------------------
     ethr =  6.24E-04,  avg # of iterations =  1.8

     total cpu time spent up to now is        5.5 secs

     total energy              =     -15.59432365 Ry
     estimated scf accuracy    <       0.05290401 Ry

     iteration #  2     ecut=   110.00 Ry     beta= 0.70
     Davidson diagonalization with overlap

---- Real-time Memory Report at c_bands before calling an iterative solver
            87 MiB given to the printing process from OS
             0 MiB allocation reported by mallinfo(arena+hblkhd)
           352 MiB available memory on the node where the printing process lives
------------------
     ethr =  6.61E-04,  avg # of iterations =  2.0

     total cpu time spent up to now is       14.5 secs

     total energy              =     -15.59978642 Ry
     estimated scf accuracy    <       0.00681651 Ry

     iteration #  3     ecut=   110.00 Ry     beta= 0.70
     Davidson diagonalization with overlap

---- Real-time Memory Report at c_bands before calling an iterative solver
            88 MiB given to the printing process from OS
             0 MiB allocation reported by mallinfo(arena+hblkhd)
           319 MiB available memory on the node where the printing process lives
------------------
     ethr =  8.52E-05,  avg # of iterations =  3.9

     total cpu time spent up to now is        9.9 secs

     total energy              =     -15.59730688 Ry
     estimated scf accuracy    <       0.00027895 Ry

     iteration #  4     ecut=   110.00 Ry     beta= 0.70
     Davidson diagonalization with overlap

---- Real-time Memory Report at c_bands before calling an iterative solver
            90 MiB given to the printing process from OS
             0 MiB allocation reported by mallinfo(arena+hblkhd)
           310 MiB available memory on the node where the printing process lives
------------------
     c_bands:  1 eigenvalues not converged
     ethr =  3.49E-06,  avg # of iterations =  5.9

     total cpu time spent up to now is       23.2 secs

     total energy              =     -15.59648463 Ry
     estimated scf accuracy    <       0.00008029 Ry

     iteration #  5     ecut=   110.00 Ry     beta= 0.70
     Davidson diagonalization with overlap

---- Real-time Memory Report at c_bands before calling an iterative solver
            91 MiB given to the printing process from OS
             0 MiB allocation reported by mallinfo(arena+hblkhd)
           328 MiB available memory on the node where the printing process lives
------------------
     ethr =  1.00E-06,  avg # of iterations =  2.2

     total cpu time spent up to now is       17.1 secs

     total energy              =     -15.59629521 Ry
     estimated scf accuracy    <       0.00000912 Ry

     iteration #  6     ecut=   110.00 Ry     beta= 0.70
     Davidson diagonalization with overlap

---- Real-time Memory Report at c_bands before calling an iterative solver
            92 MiB given to the printing process from OS
             0 MiB allocation reported by mallinfo(arena+hblkhd)
           326 MiB available memory on the node where the printing process lives
------------------
     ethr =  1.14E-07,  avg # of iterations =  3.1

     total cpu time spent up to now is       27.2 secs

     total energy              =     -15.59630527 Ry
     estimated scf accuracy    <       0.00000038 Ry

     iteration #  7     ecut=   110.00 Ry     beta= 0.70
     Davidson diagonalization with overlap

---- Real-time Memory Report at c_bands before calling an iterative solver
            94 MiB given to the printing process from OS
             0 MiB allocation reported by mallinfo(arena+hblkhd)
           316 MiB available memory on the node where the printing process lives
------------------
     ethr =  4.79E-09,  avg # of iterations =  5.1

     total cpu time spent up to now is       85.3 secs

     total energy              =     -15.59633371 Ry
     estimated scf accuracy    <       0.00000001 Ry

     iteration #  8     ecut=   110.00 Ry     beta= 0.70
     Davidson diagonalization with overlap

---- Real-time Memory Report at c_bands before calling an iterative solver
            95 MiB given to the printing process from OS
             0 MiB allocation reported by mallinfo(arena+hblkhd)
           313 MiB available memory on the node where the printing process lives
------------------
     ethr =  1.70E-10,  avg # of iterations =  5.0

     total cpu time spent up to now is       84.3 secs

     total energy              =     -15.59628902 Ry
     estimated scf accuracy    <       0.00000001 Ry

     iteration #  9     ecut=   110.00 Ry     beta= 0.70
     Davidson diagonalization with overlap

---- Real-time Memory Report at c_bands before calling an iterative solver
            96 MiB given to the printing process from OS
             0 MiB allocation reported by mallinfo(arena+hblkhd)
           280 MiB available memory on the node where the printing process lives
------------------
     ethr =  1.26E-10,  avg # of iterations =  4.9

     total cpu time spent up to now is       98.9 secs

     total energy              =     -15.59629096 Ry
     estimated scf accuracy    <          1.6E-09 Ry

     iteration # 10     ecut=   110.00 Ry     beta= 0.70
     Davidson diagonalization with overlap

---- Real-time Memory Report at c_bands before calling an iterative solver
            98 MiB given to the printing process from OS
             0 MiB allocation reported by mallinfo(arena+hblkhd)
           300 MiB available memory on the node where the printing process lives
------------------
     ethr =  1.98E-11,  avg # of iterations =  2.1

     total cpu time spent up to now is       92.1 secs

     End of self-consistent calculation

          k = 0.0000 0.0000 0.0000 (  5209 PWs)   bands (ev):

    -5.9674   6.7198   6.7198   6.7198   9.5662

     occupation numbers 
     1.0000   1.0000   1.0000   1.0000   0.0000

          k =-0.0833 0.0833-0.0833 (  5191 PWs)   bands (ev):

    -5.8702   5.8459   6.5663   6.5663   9.6834

     occupation numbers 
     1.0000   1.0000   1.0000   1.0000   0.0000

          k =-0.1667 0.1667-0.1667 (  5258 PWs)   bands (ev):

    -5.5814   4.2400   6.2374   6.2374   9.4921

     occupation numbers 
     1.0000   1.0000   1.0000   1.0000   0.0000

          k =-0.2500 0.2500-0.2500 (  5264 PWs)   bands (ev):

    -5.1120   2.5879   5.9048   5.9048   9.1789

     occupation numbers 
     1.0000   1.0000   1.0000   1.0000   0.0000

          k =-0.3333 0.3333-0.3333 (  5273 PWs)   bands (ev):

    -4.4925   1.0780   5.6456   5.6456   8.9116

     occupation numbers 
     1.0000   1.0000   1.0000   1.0000   0.0000

          k =-0.4167 0.4167-0.4167 (  5270 PWs)   bands (ev):

    -3.8222  -0.1395   5.4858   5.4858   8.7413

     occupation numbers 
     1.0000   1.0000   1.0000   1.0000   0.0000

          k = 0.5000-0.5000 0.5000 (  5252 PWs)   bands (ev):

    -3.4573  -0.6887   5.4322   5.4322   8.6835

     occupation numbers 
     1.0000   1.0000   1.0000   1.0000   0.0000

          k = 0.0000 0.1667 0.0000 (  5205 PWs)   bands (ev):

    -5.8376   6.0560   6.2560   6.2560   9.2595

     occupation numbers 
     1.0000   1.0000   1.0000   1.0000   0.0000

          k =-0.0833 0.2500-0.0833 (  5233 PWs)   bands (ev):

    -5.6121   4.7379   5.8629   6.0961   9.2808

     occupation numbers 
     1.0000   1.0000   1.0000   1.0000   0.0000

          k =-0.1667 0.3333-0.1667 (  5238 PWs)   bands (ev):

    -5.2013   3.1296   5.5250   5.7554   9.4661

     occupation numbers 
     1.0000   1.0000   1.0000   1.0000   0.0000

          k =-0.2500 0.4167-0.2500 (  5268 PWs)   bands (ev):

    -4.6266   1.5866   5.2990   5.3776   9.3781

     occupation numbers 
     1.0000   1.0000   1.0000   1.0000   0.0000

          k =-0.3333 0.5000-0.3333 (  5265 PWs)   bands (ev):

    -3.9525   0.2615   5.0578   5.2030   9.2325

     occupation numbers 
     1.0000   1.0000   1.0000   1.0000   0.0000

          k = 0.5833-0.4167 0.5833 (  5262 PWs)   bands (ev):

    -3.4183  -0.5733   4.8342   5.2379   9.1673

     occupation numbers 
     1.0000   1.0000   1.0000   1.0000   0.0000

          k = 0.5000-0.3333 0.5000 (  5268 PWs)   bands (ev):

    -3.5506  -0.3798   4.7276   5.3942   9.2103

     occupation numbers 
     1.0000   1.0000   1.0000   1.0000   0.0000

          k = 0.4167-0.2500 0.4167 (  5266 PWs)   bands (ev):

    -4.1814   0.6715   4.7523   5.6547   9.3578

     occupation numbers 
     1.0000   1.0000   1.0000   1.0000   0.0000

          k = 0.3333-0.1667 0.3333 (  5258 PWs)   bands (ev):

    -4.8351   2.0859   4.9186   5.9907   9.5934

     occupation numbers 
     1.0000   1.0000   1.0000   1.0000   0.0000

          k = 0.2500-0.0833 0.2500 (  5245 PWs)   bands (ev):

    -5.3587   3.6530   5.2379   6.3459   9.8735

     occupation numbers 
     1.0000   1.0000   1.0000   1.0000   0.0000

          k = 0.1667-0.0000 0.1667 (  5228 PWs)   bands (ev):

    -5.7089   5.0968   5.7901   6.5973   9.8386

     occupation numbers 
     1.0000   1.0000   1.0000   1.0000   0.0000

          k = 0.0000 0.3333 0.0000 (  5253 PWs)   bands (ev):

    -5.4500   4.6795   5.4300   5.4300   8.6143

     occupation numbers 
     1.0000   1.0000   1.0000   1.0000   0.0000

          k =-0.0833 0.4167-0.0833 (  5257 PWs)   bands (ev):

    -5.1000   3.4960   5.0680   5.0822   8.6290

     occupation numbers 
     1.0000   1.0000   1.0000   1.0000   0.0000

          k =-0.1667 0.5000-0.1667 (  5255 PWs)   bands (ev):

    -4.5769   2.0734   4.6109   4.8318   8.8797

     occupation numbers 
     1.0000   1.0000   1.0000   1.0000   0.0000

          k =-0.2500 0.5833-0.2500 (  5257 PWs)   bands (ev):

    -3.9231   0.7370   4.1430   4.7416   8.9255

     occupation numbers 
     1.0000   1.0000   1.0000   1.0000   0.0000

          k = 0.6667-0.3333 0.6667 (  5265 PWs)   bands (ev):

    -3.2903  -0.2771   3.7714   4.8009   8.9693

     occupation numbers 
     1.0000   1.0000   1.0000   1.0000   0.0000

          k = 0.5833-0.2500 0.5833 (  5271 PWs)   bands (ev):

    -3.1648  -0.4522   3.5368   5.0014   9.1468

     occupation numbers 
     1.0000   1.0000   1.0000   1.0000   0.0000

          k = 0.5000-0.1667 0.5000 (  5281 PWs)   bands (ev):

    -3.7081   0.3733   3.4681   5.3226   9.4657

     occupation numbers 
     1.0000   1.0000   1.0000   1.0000   0.0000

          k = 0.4167-0.0833 0.4167 (  5278 PWs)   bands (ev):

    -4.3810   1.6163   3.6100   5.7232   9.8686

     occupation numbers 
     1.0000   1.0000   1.0000   1.0000   0.0000

          k = 0.3333 0.0000 0.3333 (  5250 PWs)   bands (ev):

    -4.9518   2.8489   4.1238   6.1186  10.2037

     occupation numbers 
     1.0000   1.0000   1.0000   1.0000   0.0000

          k = 0.0000 0.5000 0.0000 (  5297 PWs)   bands (ev):

    -4.8104   3.1116   4.6750   4.6750   7.9846

     occupation numbers 
     1.0000   1.0000   1.0000   1.0000   0.0000

          k =-0.0833 0.5833-0.0833 (  5265 PWs)   bands (ev):

    -4.3426   2.1255   4.1824   4.4083   8.0660

     occupation numbers 
     1.0000   1.0000   1.0000   1.0000   0.0000

          k =-0.1667 0.6667-0.1667 (  5255 PWs)   bands (ev):

    -3.7244   1.0056   3.5127   4.2925   8.2810

     occupation numbers 
     1.0000   1.0000   1.0000   1.0000   0.0000

          k = 0.7500-0.2500 0.7500 (  5264 PWs)   bands (ev):

    -3.0497  -0.0044   2.9308   4.3348   8.3702

     occupation numbers 
     1.0000   1.0000   1.0000   1.0000   0.0000

          k = 0.6667-0.1667 0.6667 (  5263 PWs)   bands (ev):

    -2.6950  -0.4605   2.5404   4.5304   8.5701

     occupation numbers 
     1.0000   1.0000   1.0000   1.0000   0.0000

          k = 0.5833-0.0833 0.5833 (  5270 PWs)   bands (ev):

    -3.1043   0.0798   2.4045   4.8618   8.9347

     occupation numbers 
     1.0000   1.0000   1.0000   1.0000   0.0000

          k = 0.5000 0.0000 0.5000 (  5258 PWs)   bands (ev):

    -3.7765   0.9716   2.6808   5.2887   9.4255

     occupation numbers 
     1.0000   1.0000   1.0000   1.0000   0.0000

          k = 0.0000 0.6667 0.0000 (  5257 PWs)   bands (ev):

    -3.9294   1.5059   4.1037   4.1037   7.5404

     occupation numbers 
     1.0000   1.0000   1.0000   1.0000   0.0000

          k =-0.0833 0.7500-0.0833 (  5271 PWs)   bands (ev):

    -3.3552   0.6576   3.5815   3.9494   7.7024

     occupation numbers 
     1.0000   1.0000   1.0000   1.0000   0.0000

          k = 0.8333-0.1667 0.8333 (  5274 PWs)   bands (ev):

    -2.6766  -0.1733   2.7984   3.9562   7.8729

     occupation numbers 
     1.0000   1.0000   1.0000   1.0000   0.0000

          k = 0.7500-0.0833 0.7500 (  5264 PWs)   bands (ev):

    -2.1639  -0.7102   2.1750   4.1229   8.0639

     occupation numbers 
     1.0000   1.0000   1.0000   1.0000   0.0000

          k = 0.6667-0.0000 0.6667 (  5256 PWs)   bands (ev):

    -2.4574  -0.4047   1.9592   4.4360   8.4233

     occupation numbers 
     1.0000   1.0000   1.0000   1.0000   0.0000

          k = 0.0000 0.8333 0.0000 (  5281 PWs)   bands (ev):

    -2.8243  -0.0602   3.7519   3.7519   7.3595

     occupation numbers 
     1.0000   1.0000   1.0000   1.0000   0.0000

          k = 0.9167-0.0833 0.9167 (  5274 PWs)   bands (ev):

    -2.1634  -0.8016   3.2871   3.7155   7.5605

     occupation numbers 
     1.0000   1.0000   1.0000   1.0000   0.0000

          k = 0.8333 0.0000 0.8333 (  5278 PWs)   bands (ev):

    -1.6644  -1.2411   2.5634   3.8423   7.7297

     occupation numbers 
     1.0000   1.0000   1.0000   1.0000   0.0000

          k = 0.0000-1.0000 0.0000 (  5290 PWs)   bands (ev):

    -1.5214  -1.5214   3.6334   3.6334   7.4884

     occupation numbers 
     1.0000   1.0000   1.0000   1.0000   0.0000

          k =-0.1667 0.3333 0.0000 (  5245 PWs)   bands (ev):

    -5.3247   3.9081   4.9592   5.9763   9.2995

     occupation numbers 
     1.0000   1.0000   1.0000   1.0000   0.0000

          k =-0.2500 0.4167-0.0833 (  5260 PWs)   bands (ev):

    -4.8574   2.5707   4.4004   5.6761   9.6115

     occupation numbers 
     1.0000   1.0000   1.0000   1.0000   0.0000

          k =-0.3333 0.5000-0.1667 (  5266 PWs)   bands (ev):

    -4.2396   1.1637   4.1253   5.3165   9.6960

     occupation numbers 
     1.0000   1.0000   1.0000   1.0000   0.0000

          k = 0.5833-0.4167 0.7500 (  5267 PWs)   bands (ev):

    -3.5678  -0.0156   3.9988   5.0432   9.6818

     occupation numbers 
     1.0000   1.0000   1.0000   1.0000   0.0000

          k = 0.5000-0.3333 0.6667 (  5266 PWs)   bands (ev):

    -3.1981  -0.5584   3.9649   4.9407   9.6912

     occupation numbers 
     1.0000   1.0000   1.0000   1.0000   0.0000

          k =-0.1667 0.5000 0.0000 (  5264 PWs)   bands (ev):

    -4.6919   2.6576   4.2076   4.9733   8.6939

     occupation numbers 
     1.0000   1.0000   1.0000   1.0000   0.0000

          k =-0.2500 0.5833-0.0833 (  5266 PWs)   bands (ev):

    -4.1203   1.5196   3.6435   4.6548   9.0401

     occupation numbers 
     1.0000   1.0000   1.0000   1.0000   0.0000

          k = 0.6667-0.3333 0.8333 (  5269 PWs)   bands (ev):

    -3.4459   0.3717   3.2760   4.4203   9.1589

     occupation numbers 
     1.0000   1.0000   1.0000   1.0000   0.0000

          k = 0.5833-0.2500 0.7500 (  5265 PWs)   bands (ev):

    -2.9048  -0.4005   3.0163   4.3995   9.2997

     occupation numbers 
     1.0000   1.0000   1.0000   1.0000   0.0000

          k = 0.5000-0.1667 0.6667 (  5269 PWs)   bands (ev):

    -3.0529  -0.1960   2.8838   4.5892   9.5821

     occupation numbers 
     1.0000   1.0000   1.0000   1.0000   0.0000

          k = 0.4167-0.0833 0.5833 (  5268 PWs)   bands (ev):

    -3.6928   0.7607   2.9503   4.9365   9.9981

     occupation numbers 
     1.0000   1.0000   1.0000   1.0000   0.0000

          k = 0.3333 0.0000 0.5000 (  5265 PWs)   bands (ev):

    -4.3413   1.8209   3.3847   5.3549  10.2350

     occupation numbers 
     1.0000   1.0000   1.0000   1.0000   0.0000

          k =-0.1667 0.6667-0.0000 (  5266 PWs)   bands (ev):

    -3.8230   1.3129   3.6558   4.1110   8.2528

     occupation numbers 
     1.0000   1.0000   1.0000   1.0000   0.0000

          k = 0.7500-0.2500 0.9167 (  5264 PWs)   bands (ev):

    -3.1709   0.4096   3.0269   3.8743   8.5930

     occupation numbers 
     1.0000   1.0000   1.0000   1.0000   0.0000

          k = 0.6667-0.1667 0.8333 (  5264 PWs)   bands (ev):

    -2.5314  -0.3700   2.4686   3.8841   8.7521

     occupation numbers 
     1.0000   1.0000   1.0000   1.0000   0.0000

          k = 0.5833-0.0833 0.7500 (  5274 PWs)   bands (ev):

    -2.4516  -0.4504   2.1559   4.1008   9.0331

     occupation numbers 
     1.0000   1.0000   1.0000   1.0000   0.0000

          k = 0.5000 0.0000 0.6667 (  5272 PWs)   bands (ev):

    -3.0350   0.1890   2.2476   4.4764   9.4682

     occupation numbers 
     1.0000   1.0000   1.0000   1.0000   0.0000

          k = 0.8333-0.1667 1.0000 (  5270 PWs)   bands (ev):

    -2.7398  -0.0978   3.3465   3.5513   8.0549

     occupation numbers 
     1.0000   1.0000   1.0000   1.0000   0.0000

          k = 0.7500-0.0833 0.9167 (  5278 PWs)   bands (ev):

    -2.0594  -0.7908   2.6654   3.5067   8.3533

     occupation numbers 
     1.0000   1.0000   1.0000   1.0000   0.0000

          k = 0.6667 0.0000 0.8333 (  5269 PWs)   bands (ev):

    -1.8846  -0.9192   2.1278   3.7205   8.6102

     occupation numbers 
     1.0000   1.0000   1.0000   1.0000   0.0000

          k =-0.1667-1.0000-0.0000 (  5280 PWs)   bands (ev):

    -1.4783  -1.4783   3.3042   3.3042   8.1464

     occupation numbers 
     1.0000   1.0000   1.0000   1.0000   0.0000

          k = 0.6667-0.3333 1.0000 (  5256 PWs)   bands (ev):

    -3.5135   0.8111   2.8746   4.2403   9.8264

     occupation numbers 
     1.0000   1.0000   1.0000   1.0000   0.0000

          k = 0.5833-0.2500 0.9167 (  5265 PWs)   bands (ev):

    -2.8389  -0.0228   2.5068   3.8720  10.1852

     occupation numbers 
     1.0000   1.0000   1.0000   1.0000   0.0000

          k = 0.5000-0.1667 0.8333 (  5260 PWs)   bands (ev):

    -2.4456  -0.4935   2.4119   3.7303  10.6500

     occupation numbers 
     1.0000   1.0000   1.0000   1.0000   0.0000

          k = 0.6667-0.1667 1.0000 (  5252 PWs)   bands (ev):

    -2.5060  -0.2519   2.6542   3.3098   9.6233

     occupation numbers 
     1.0000   1.0000   1.0000   1.0000   0.0000

          k = 0.5833-0.0833 0.9167 (  5264 PWs)   bands (ev):

    -1.9373  -0.7995   2.3101   3.1452   9.9662

     occupation numbers 
     1.0000   1.0000   1.0000   1.0000   0.0000

          k = 0.5000 0.0000 0.8333 (  5263 PWs)   bands (ev):

    -2.1868  -0.5538   2.1766   3.3893  10.2809

     occupation numbers 
     1.0000   1.0000   1.0000   1.0000   0.0000

          k =-0.3333-1.0000 0.0000 (  5262 PWs)   bands (ev):

    -1.3854  -1.3854   2.7793   2.7793   9.6728

     occupation numbers 
     1.0000   1.0000   1.0000   1.0000   0.0000

          k =-0.5000-1.0000 0.0000 (  5268 PWs)   bands (ev):

    -1.3349  -1.3349   2.5537   2.5537  11.2234

     occupation numbers 
     1.0000   1.0000   1.0000   1.0000   0.0000

     highest occupied, lowest unoccupied level (ev):     6.7198    7.3595

!    total energy              =     -15.59628930 Ry
     estimated scf accuracy    <          6.2E-11 Ry

     The total energy is the sum of the following terms:
     one-electron contribution =       5.02026641 Ry
     hartree contribution      =       1.01512202 Ry
     xc contribution           =      -4.83402256 Ry
     ewald contribution        =     -16.79765518 Ry

     convergence has been achieved in  10 iterations
     Writing meta-gga kinetic term

     Writing all to output data dir ./tmp/Si.save/
     Writing meta-gga kinetic term

     init_run     :      4.50s CPU      4.80s WALL (       1 calls)
     electrons    :    115.79s CPU     87.26s WALL (       1 calls)

     Called by init_run:
     wfcinit      :      4.07s CPU      4.27s WALL (       1 calls)
     wfcinit:atom :      0.02s CPU      0.02s WALL (      72 calls)
     wfcinit:wfcr :      3.93s CPU      4.13s WALL (      72 calls)
     potinit      :      0.12s CPU      0.13s WALL (       1 calls)
     hinit0       :      0.28s CPU      0.33s WALL (       1 calls)

     Called by electrons:
     c_bands      :     99.84s CPU     70.10s WALL (      11 calls)
     sum_band     :     15.26s CPU     16.38s WALL (      11 calls)
     v_of_rho     :      0.71s CPU      0.77s WALL (      11 calls)
     v_h          :      0.01s CPU      0.02s WALL (      11 calls)
     v_xc_meta    :      0.69s CPU      0.75s WALL (      11 calls)
     mix_rho      :      0.06s CPU      0.07s WALL (      11 calls)

     Called by c_bands:
     init_us_2    :      1.14s CPU      1.18s WALL (    1656 calls)
     init_us_2:cp :      1.13s CPU      1.18s WALL (    1656 calls)
     cegterg      :     97.43s CPU     82.98s WALL (     792 calls)

     Called by sum_band:
     sum_band:wei :      0.00s CPU      0.00s WALL (      11 calls)
     sum_band:loo :     15.15s CPU     16.27s WALL (      11 calls)
     sum_band:buf :      0.03s CPU      0.03s WALL (     792 calls)
     sum_band:ini :      0.56s CPU      0.58s WALL (     792 calls)

     Called by *egterg:
     cdiaghg      :      0.20s CPU      0.21s WALL (    3515 calls)
     cegterg:over :      0.60s CPU      0.67s WALL (    2795 calls)
     cegterg:upda :      0.36s CPU      0.38s WALL (    2795 calls)
     cegterg:last :      0.52s CPU      0.56s WALL (    2339 calls)
     h_psi        :     99.23s CPU     84.80s WALL (    3659 calls)
     g_psi        :      0.09s CPU      0.10s WALL (    2795 calls)

     Called by h_psi:
     h_psi:calbec :      1.39s CPU      1.45s WALL (    3659 calls)
     vloc_psi     :     24.13s CPU     25.52s WALL (    3659 calls)
     add_vuspsi   :      1.20s CPU    -14.61s WALL (    3659 calls)
     h_psi_meta   :     72.43s CPU     72.35s WALL (    3659 calls)

     General routines
     calbec       :      1.38s CPU      1.45s WALL (    3659 calls)
     fft          :      0.35s CPU      0.39s WALL (     132 calls)
     ffts         :      0.02s CPU      0.02s WALL (      22 calls)
     fftw         :     96.95s CPU     98.42s WALL (  130328 calls)
     interpolate  :      0.00s CPU      0.00s WALL (      11 calls)

     Parallel routines

     PWSCF        :   2m 0.36s CPU   1m32.19s WALL


   This run was terminated on:  17:52:41  25May2023            

=------------------------------------------------------------------------------=
   JOB DONE.
=------------------------------------------------------------------------------=
