
     Program PROJWFC v.7.2 starts on 23Jun2024 at 13: 8:24 

     This program is part of the open-source Quantum ESPRESSO suite
     for quantum simulation of materials; please cite
         "P. Giannozzi et al., J. Phys.:Condens. Matter 21 395502 (2009);
         "P. Giannozzi et al., J. Phys.:Condens. Matter 29 465901 (2017);
         "P. Giannozzi et al., J. Chem. Phys. 152 154105 (2020);
          URL http://www.quantum-espresso.org", 
     in publications or presentations arising from this work. More details at
     http://www.quantum-espresso.org/quote

     Parallel version (MPI), running on    32 processors

     MPI processes distributed on     1 nodes
     R & G space division:  proc/nbgrp/npool/nimage =      32
     225756 MiB available memory on the printing compute node when the environment starts
 

     Reading xml data from directory:

     ./tmp/CoO.save/
     Message from routine volume:
     axis vectors are left-handed
     file O.pbesol-n-kjpaw_psl.0.1.UPF: wavefunction(s)  2P renormalized

     IMPORTANT: XC functional enforced from input :
     Exchange-correlation= PBESOL
                           (   1   4  10   8   0   0   0)
     Any further DFT definition will be discarded
     Please, verify this is what you really want

 
     Parallelization info
     --------------------
     sticks:   dense  smooth     PW     G-vecs:    dense   smooth      PW
     Min          36      18      6                  579      204      43
     Max          37      20      7                  582      205      45
     Sum        1167     587    207                18569     6541    1403
 
     Using Slab Decomposition
 

     Check: negative core charge=   -0.000041

     Gaussian broadening (read from input): ngauss,degauss=   0    0.005000


     Calling projwave .... 
     Subspace diagonalization in iterative solution of the eigenvalue problem:
     a serial algorithm will be used

 
  Problem Sizes 
  natomwfc =           34
  nbnd     =           40
  nkstot   =           64
  npwx     =           30
  nkb      =           52
 

     Atomic states used for projection
     (read from pseudopotential files):

     state #   1: atom   1 (Co1), wfc  1 (l=0 m= 1)
     state #   2: atom   1 (Co1), wfc  2 (l=1 m= 1)
     state #   3: atom   1 (Co1), wfc  2 (l=1 m= 2)
     state #   4: atom   1 (Co1), wfc  2 (l=1 m= 3)
     state #   5: atom   1 (Co1), wfc  3 (l=2 m= 1)
     state #   6: atom   1 (Co1), wfc  3 (l=2 m= 2)
     state #   7: atom   1 (Co1), wfc  3 (l=2 m= 3)
     state #   8: atom   1 (Co1), wfc  3 (l=2 m= 4)
     state #   9: atom   1 (Co1), wfc  3 (l=2 m= 5)
     state #  10: atom   1 (Co1), wfc  4 (l=0 m= 1)
     state #  11: atom   1 (Co1), wfc  5 (l=1 m= 1)
     state #  12: atom   1 (Co1), wfc  5 (l=1 m= 2)
     state #  13: atom   1 (Co1), wfc  5 (l=1 m= 3)
     state #  14: atom   2 (Co2), wfc  1 (l=0 m= 1)
     state #  15: atom   2 (Co2), wfc  2 (l=1 m= 1)
     state #  16: atom   2 (Co2), wfc  2 (l=1 m= 2)
     state #  17: atom   2 (Co2), wfc  2 (l=1 m= 3)
     state #  18: atom   2 (Co2), wfc  3 (l=2 m= 1)
     state #  19: atom   2 (Co2), wfc  3 (l=2 m= 2)
     state #  20: atom   2 (Co2), wfc  3 (l=2 m= 3)
     state #  21: atom   2 (Co2), wfc  3 (l=2 m= 4)
     state #  22: atom   2 (Co2), wfc  3 (l=2 m= 5)
     state #  23: atom   2 (Co2), wfc  4 (l=0 m= 1)
     state #  24: atom   2 (Co2), wfc  5 (l=1 m= 1)
     state #  25: atom   2 (Co2), wfc  5 (l=1 m= 2)
     state #  26: atom   2 (Co2), wfc  5 (l=1 m= 3)
     state #  27: atom   3 (O  ), wfc  1 (l=0 m= 1)
     state #  28: atom   3 (O  ), wfc  2 (l=1 m= 1)
     state #  29: atom   3 (O  ), wfc  2 (l=1 m= 2)
     state #  30: atom   3 (O  ), wfc  2 (l=1 m= 3)
     state #  31: atom   4 (O  ), wfc  1 (l=0 m= 1)
     state #  32: atom   4 (O  ), wfc  2 (l=1 m= 1)
     state #  33: atom   4 (O  ), wfc  2 (l=1 m= 2)
     state #  34: atom   4 (O  ), wfc  2 (l=1 m= 3)

 k =   0.0000000000  0.0000000000  0.0000000000
==== e(   1) =   -81.44966 eV ==== 
     psi = 0.987*[#   1]+0.004*[#  10]+0.003*[#  23]
    |psi|^2 = 1.000
==== e(   2) =   -77.91531 eV ==== 
     psi = 0.986*[#  14]+0.005*[#  23]+0.003*[#  10]
    |psi|^2 = 1.000
==== e(   3) =   -45.64969 eV ==== 
     psi = 0.331*[#   2]+0.331*[#   3]+0.331*[#   4]+0.002*[#  24]+0.002*[#  25]
          +0.002*[#  26]
    |psi|^2 = 1.000
==== e(   4) =   -44.39843 eV ==== 
     psi = 0.330*[#   2]+0.330*[#   3]+0.330*[#   4]+0.003*[#  11]+0.003*[#  12]
          +0.003*[#  13]
    |psi|^2 = 1.000
==== e(   5) =   -44.39843 eV ==== 
     psi = 0.330*[#   2]+0.330*[#   3]+0.330*[#   4]+0.003*[#  11]+0.003*[#  12]
          +0.003*[#  13]
    |psi|^2 = 1.000
==== e(   6) =   -41.67705 eV ==== 
     psi = 0.330*[#  15]+0.330*[#  16]+0.330*[#  17]+0.002*[#  11]+0.002*[#  12]
          +0.002*[#  13]
    |psi|^2 = 1.000
==== e(   7) =   -41.28244 eV ==== 
     psi = 0.330*[#  15]+0.330*[#  16]+0.330*[#  17]+0.003*[#  24]+0.003*[#  25]
          +0.003*[#  26]
    |psi|^2 = 1.000
==== e(   8) =   -41.28244 eV ==== 
     psi = 0.330*[#  15]+0.330*[#  16]+0.330*[#  17]+0.003*[#  24]+0.003*[#  25]
          +0.003*[#  26]
    |psi|^2 = 1.000
==== e(   9) =    -4.85960 eV ==== 
     psi = 0.306*[#  27]+0.306*[#  31]+0.192*[#  10]+0.186*[#  23]+0.004*[#  14]
          +0.004*[#   1]
    |psi|^2 = 1.000
==== e(  10) =    -3.65804 eV ==== 
     psi = 0.320*[#  27]+0.320*[#  31]+0.060*[#  11]+0.060*[#  12]+0.060*[#  13]
          +0.058*[#  24]+0.058*[#  25]+0.058*[#  26]+0.001*[#  15]+0.001*[#  16]
          +0.001*[#  17]
    |psi|^2 = 1.000
==== e(  11) =     5.97673 eV ==== 
     psi = 0.143*[#  10]+0.115*[#   6]+0.115*[#   7]+0.115*[#   9]+0.106*[#  23]
          +0.064*[#  28]+0.064*[#  29]+0.064*[#  30]+0.064*[#  32]+0.064*[#  33]
          +0.064*[#  34]+0.003*[#  19]+0.003*[#  20]+0.003*[#  22]+0.003*[#   1]
          +0.003*[#  14]
    |psi|^2 = 0.999
==== e(  12) =     8.26731 eV ==== 
     psi = 0.397*[#   5]+0.397*[#   8]+0.025*[#  28]+0.025*[#  29]+0.025*[#  30]
          +0.025*[#  32]+0.025*[#  33]+0.025*[#  34]+0.016*[#   6]+0.016*[#   7]
          +0.016*[#   9]+0.002*[#  18]+0.002*[#  21]+0.001*[#  19]+0.001*[#  20]
          +0.001*[#  22]
    |psi|^2 = 0.999
==== e(  13) =     8.26731 eV ==== 
     psi = 0.397*[#   5]+0.397*[#   8]+0.025*[#  28]+0.025*[#  29]+0.025*[#  30]
          +0.025*[#  32]+0.025*[#  33]+0.025*[#  34]+0.016*[#   6]+0.016*[#   7]
          +0.016*[#   9]+0.002*[#  18]+0.002*[#  21]+0.001*[#  19]+0.001*[#  20]
          +0.001*[#  22]
    |psi|^2 = 0.999
==== e(  14) =     9.06055 eV ==== 
     psi = 0.212*[#   6]+0.212*[#   7]+0.212*[#   9]+0.077*[#  23]+0.038*[#  28]
          +0.038*[#  29]+0.038*[#  30]+0.038*[#  32]+0.038*[#  33]+0.038*[#  34]
          +0.028*[#  10]+0.008*[#  19]+0.008*[#  20]+0.008*[#  22]+0.002*[#  14]
          
    |psi|^2 = 0.998
==== e(  15) =     9.65067 eV ==== 
     psi = 0.311*[#   6]+0.311*[#   7]+0.311*[#   9]+0.028*[#   5]+0.028*[#   8]
          +0.003*[#  19]+0.003*[#  20]+0.003*[#  22]
    |psi|^2 = 0.998
==== e(  16) =     9.65067 eV ==== 
     psi = 0.311*[#   6]+0.311*[#   7]+0.311*[#   9]+0.028*[#   5]+0.028*[#   8]
          +0.003*[#  19]+0.003*[#  20]+0.003*[#  22]
    |psi|^2 = 0.998
==== e(  17) =    11.75452 eV ==== 
     psi = 0.313*[#  19]+0.313*[#  20]+0.313*[#  22]+0.012*[#   5]+0.012*[#   8]
          +0.005*[#  28]+0.005*[#  29]+0.005*[#  30]+0.005*[#  32]+0.005*[#  33]
          +0.005*[#  34]+0.001*[#   6]+0.001*[#   7]+0.001*[#   9]
    |psi|^2 = 0.995
==== e(  18) =    11.75452 eV ==== 
     psi = 0.313*[#  19]+0.313*[#  20]+0.313*[#  22]+0.012*[#   5]+0.012*[#   8]
          +0.005*[#  28]+0.005*[#  29]+0.005*[#  30]+0.005*[#  32]+0.005*[#  33]
          +0.005*[#  34]+0.001*[#   6]+0.001*[#   7]+0.001*[#   9]
    |psi|^2 = 0.995
==== e(  19) =    11.82413 eV ==== 
     psi = 0.155*[#  28]+0.155*[#  29]+0.155*[#  30]+0.155*[#  32]+0.155*[#  33]
          +0.155*[#  34]+0.011*[#  11]+0.011*[#  12]+0.011*[#  13]+0.011*[#  24]
          +0.011*[#  25]+0.011*[#  26]
    |psi|^2 = 0.997
==== e(  20) =    13.39262 eV ==== 
     psi = 0.164*[#  28]+0.164*[#  29]+0.164*[#  30]+0.164*[#  32]+0.164*[#  33]
          +0.164*[#  34]+0.002*[#  11]+0.002*[#  12]+0.002*[#  13]+0.002*[#  24]
          +0.002*[#  25]+0.002*[#  26]
    |psi|^2 = 0.996
==== e(  21) =    13.39263 eV ==== 
     psi = 0.164*[#  28]+0.164*[#  29]+0.164*[#  30]+0.164*[#  32]+0.164*[#  33]
          +0.164*[#  34]+0.002*[#  11]+0.002*[#  12]+0.002*[#  13]+0.002*[#  24]
          +0.002*[#  25]+0.002*[#  26]
    |psi|^2 = 0.996
==== e(  22) =    13.62704 eV ==== 
     psi = 0.106*[#  28]+0.106*[#  29]+0.106*[#  30]+0.106*[#  32]+0.106*[#  33]
          +0.106*[#  34]+0.097*[#  18]+0.097*[#  21]+0.057*[#   5]+0.057*[#   8]
          +0.012*[#  19]+0.012*[#  20]+0.012*[#  22]+0.005*[#   6]+0.005*[#   7]
          +0.005*[#   9]
    |psi|^2 = 0.996
==== e(  23) =    13.62704 eV ==== 
     psi = 0.106*[#  28]+0.106*[#  29]+0.106*[#  30]+0.106*[#  32]+0.106*[#  33]
          +0.106*[#  34]+0.097*[#  18]+0.097*[#  21]+0.057*[#   5]+0.057*[#   8]
          +0.012*[#  19]+0.012*[#  20]+0.012*[#  22]+0.005*[#   6]+0.005*[#   7]
          +0.005*[#   9]
    |psi|^2 = 0.996
==== e(  24) =    16.61417 eV ==== 
     psi = 0.191*[#  10]+0.167*[#  23]+0.124*[#  19]+0.124*[#  20]+0.124*[#  22]
          +0.109*[#  27]+0.109*[#  31]+0.004*[#   6]+0.004*[#   7]+0.004*[#   9]
          +0.003*[#  28]+0.003*[#  29]+0.003*[#  30]+0.003*[#  32]+0.003*[#  33]
          +0.003*[#  34]+0.003*[#   1]+0.002*[#  14]
    |psi|^2 = 0.983
==== e(  25) =    18.32035 eV ==== 
     psi = 0.185*[#  19]+0.185*[#  20]+0.185*[#  22]+0.139*[#  10]+0.099*[#  23]
          +0.082*[#  27]+0.082*[#  31]+0.006*[#  28]+0.006*[#  29]+0.006*[#  30]
          +0.006*[#  32]+0.006*[#  33]+0.006*[#  34]+0.002*[#  14]
    |psi|^2 = 0.994
==== e(  26) =    19.03437 eV ==== 
     psi = 0.398*[#  18]+0.398*[#  21]+0.030*[#  28]+0.030*[#  29]+0.030*[#  30]
          +0.030*[#  32]+0.030*[#  33]+0.030*[#  34]+0.006*[#   5]+0.006*[#   8]
          +0.002*[#  19]+0.002*[#  20]+0.002*[#  22]
    |psi|^2 = 0.996
==== e(  27) =    19.03437 eV ==== 
     psi = 0.398*[#  18]+0.398*[#  21]+0.030*[#  28]+0.030*[#  29]+0.030*[#  30]
          +0.030*[#  32]+0.030*[#  33]+0.030*[#  34]+0.006*[#   5]+0.006*[#   8]
          +0.002*[#  19]+0.002*[#  20]+0.002*[#  22]
    |psi|^2 = 0.996
==== e(  28) =    22.29353 eV ==== 
     psi = 0.164*[#  27]+0.164*[#  31]+0.104*[#  11]+0.104*[#  12]+0.104*[#  13]
          +0.094*[#  24]+0.094*[#  25]+0.094*[#  26]
    |psi|^2 = 0.926
==== e(  29) =    24.64645 eV ==== 
     psi = 0.348*[#  23]+0.292*[#  10]+0.053*[#  28]+0.053*[#  29]+0.053*[#  30]
          +0.053*[#  32]+0.053*[#  33]+0.053*[#  34]+0.007*[#  19]+0.007*[#  20]
          +0.007*[#  22]+0.001*[#   1]
    |psi|^2 = 0.984
==== e(  30) =    32.10306 eV ==== 
     psi = 0.059*[#  24]+0.059*[#  25]+0.059*[#  26]+0.058*[#  11]+0.058*[#  12]
          +0.058*[#  13]+0.004*[#  28]+0.004*[#  29]+0.004*[#  30]+0.004*[#  32]
          +0.004*[#  33]+0.004*[#  34]
    |psi|^2 = 0.376
==== e(  31) =    32.14472 eV ==== 
     psi = 0.005*[#  19]+0.005*[#  20]+0.005*[#  22]+0.003*[#  10]
    |psi|^2 = 0.020
==== e(  32) =    32.46805 eV ==== 
     psi = 0.152*[#  11]+0.152*[#  12]+0.152*[#  13]+0.130*[#  24]+0.130*[#  25]
          +0.130*[#  26]+0.001*[#   2]+0.001*[#   3]+0.001*[#   4]
    |psi|^2 = 0.853
==== e(  33) =    32.46805 eV ==== 
     psi = 0.152*[#  11]+0.152*[#  12]+0.152*[#  13]+0.130*[#  24]+0.130*[#  25]
          +0.130*[#  26]+0.001*[#   2]+0.001*[#   3]+0.001*[#   4]
    |psi|^2 = 0.853
==== e(  34) =    36.41990 eV ==== 
     psi = 0.001*[#  19]+0.001*[#  20]+0.001*[#  22]
    |psi|^2 = 0.005
==== e(  35) =    36.41990 eV ==== 
     psi = 0.001*[#  19]+0.001*[#  20]+0.001*[#  22]
    |psi|^2 = 0.005
==== e(  36) =    38.09115 eV ==== 
     psi = 0.091*[#  11]+0.091*[#  12]+0.091*[#  13]+0.090*[#  24]+0.090*[#  25]
          +0.090*[#  26]+0.005*[#  28]+0.005*[#  29]+0.005*[#  30]+0.005*[#  32]
          +0.005*[#  33]+0.005*[#  34]
    |psi|^2 = 0.578
==== e(  37) =    39.53619 eV ==== 
     psi = 0.006*[#  23]+0.003*[#  10]
    |psi|^2 = 0.015
==== e(  38) =    40.54005 eV ==== 
     psi = 0.014*[#  24]+0.014*[#  25]+0.014*[#  26]+0.014*[#  27]+0.014*[#  31]
          +0.002*[#  11]+0.002*[#  12]+0.002*[#  13]
    |psi|^2 = 0.075
==== e(  39) =    40.67185 eV ==== 
     psi = 0.158*[#  24]+0.158*[#  25]+0.158*[#  26]+0.157*[#  11]+0.157*[#  12]
          +0.157*[#  13]+0.002*[#   2]+0.002*[#   3]+0.002*[#   4]+0.002*[#  28]
          +0.002*[#  29]+0.002*[#  30]+0.002*[#  32]+0.002*[#  33]+0.002*[#  34]
          +0.002*[#  15]+0.002*[#  16]+0.002*[#  17]
    |psi|^2 = 0.966
==== e(  40) =    40.67185 eV ==== 
     psi = 0.158*[#  24]+0.158*[#  25]+0.158*[#  26]+0.157*[#  11]+0.157*[#  12]
          +0.157*[#  13]+0.002*[#   2]+0.002*[#   3]+0.002*[#   4]+0.002*[#  28]
          +0.002*[#  29]+0.002*[#  30]+0.002*[#  32]+0.002*[#  33]+0.002*[#  34]
          +0.002*[#  15]+0.002*[#  16]+0.002*[#  17]
    |psi|^2 = 0.966

 k =   0.2669217713 -0.0951035257 -0.0951035257
==== e(   1) =   -81.44754 eV ==== 
     psi = 0.962*[#   1]+0.010*[#  11]+0.010*[#  12]+0.010*[#  13]+0.001*[#  24]
          +0.001*[#  25]+0.001*[#  26]
    |psi|^2 = 1.000
==== e(   2) =   -77.91290 eV ==== 
     psi = 0.962*[#  14]+0.010*[#  24]+0.010*[#  25]+0.010*[#  26]+0.001*[#  11]
          +0.001*[#  12]+0.001*[#  13]
    |psi|^2 = 1.000
==== e(   3) =   -45.64652 eV ==== 
     psi = 0.331*[#   2]+0.331*[#   3]+0.331*[#   4]+0.002*[#  24]+0.002*[#  25]
          +0.002*[#  26]
    |psi|^2 = 1.000
==== e(   4) =   -44.41926 eV ==== 
     psi = 0.332*[#   2]+0.332*[#   3]+0.332*[#   4]+0.002*[#  10]
    |psi|^2 = 1.000
==== e(   5) =   -44.40361 eV ==== 
     psi = 0.330*[#   2]+0.330*[#   3]+0.330*[#   4]+0.003*[#  11]+0.003*[#  12]
          +0.003*[#  13]
    |psi|^2 = 1.000
==== e(   6) =   -41.67319 eV ==== 
     psi = 0.331*[#  15]+0.331*[#  16]+0.331*[#  17]+0.002*[#  11]+0.002*[#  12]
          +0.002*[#  13]
    |psi|^2 = 1.000
==== e(   7) =   -41.30642 eV ==== 
     psi = 0.332*[#  15]+0.332*[#  16]+0.332*[#  17]+0.002*[#  23]
    |psi|^2 = 1.000
==== e(   8) =   -41.28834 eV ==== 
     psi = 0.331*[#  15]+0.331*[#  16]+0.331*[#  17]+0.002*[#  24]+0.002*[#  25]
          +0.002*[#  26]
    |psi|^2 = 1.000
==== e(   9) =    -4.49180 eV ==== 
     psi = 0.302*[#  27]+0.302*[#  31]+0.108*[#  10]+0.104*[#  23]+0.028*[#  11]
          +0.028*[#  12]+0.028*[#  13]+0.028*[#  24]+0.028*[#  25]+0.028*[#  26]
          +0.006*[#  14]+0.005*[#   1]
    |psi|^2 = 1.000
==== e(  10) =    -3.53349 eV ==== 
     psi = 0.340*[#  27]+0.340*[#  31]+0.050*[#  11]+0.050*[#  12]+0.050*[#  13]
          +0.049*[#  24]+0.049*[#  25]+0.049*[#  26]+0.006*[#   5]+0.006*[#   8]
          +0.002*[#  18]+0.002*[#  21]
    |psi|^2 = 0.999
==== e(  11) =     6.50338 eV ==== 
     psi = 0.124*[#   6]+0.124*[#   7]+0.124*[#   9]+0.088*[#  10]+0.076*[#  23]
          +0.059*[#  28]+0.059*[#  29]+0.059*[#  30]+0.059*[#  32]+0.059*[#  33]
          +0.059*[#  34]+0.014*[#  11]+0.014*[#  12]+0.014*[#  13]+0.010*[#  24]
          +0.010*[#  25]+0.010*[#  26]+0.010*[#   5]+0.010*[#   8]+0.003*[#   1]
          +0.003*[#  14]+0.003*[#  19]+0.003*[#  20]+0.003*[#  22]
    |psi|^2 = 0.999
==== e(  12) =     8.00640 eV ==== 
     psi = 0.337*[#   5]+0.337*[#   8]+0.035*[#  28]+0.035*[#  29]+0.035*[#  30]
          +0.035*[#  32]+0.035*[#  33]+0.035*[#  34]+0.025*[#   6]+0.025*[#   7]
          +0.025*[#   9]+0.005*[#  24]+0.005*[#  25]+0.005*[#  26]+0.004*[#  11]
          +0.004*[#  12]+0.004*[#  13]+0.003*[#  19]+0.003*[#  20]+0.003*[#  22]
          
    |psi|^2 = 0.999
==== e(  13) =     8.34978 eV ==== 
     psi = 0.417*[#   5]+0.417*[#   8]+0.026*[#  28]+0.026*[#  29]+0.026*[#  30]
          +0.026*[#  32]+0.026*[#  33]+0.026*[#  34]+0.002*[#  18]+0.002*[#  21]
          +0.001*[#  19]+0.001*[#  20]+0.001*[#  22]
    |psi|^2 = 0.999
==== e(  14) =     9.13497 eV ==== 
     psi = 0.204*[#   6]+0.204*[#   7]+0.204*[#   9]+0.045*[#  10]+0.039*[#  28]
          +0.039*[#  29]+0.039*[#  30]+0.039*[#  32]+0.039*[#  33]+0.039*[#  34]
          +0.021*[#   5]+0.021*[#   8]+0.019*[#  23]+0.006*[#  19]+0.006*[#  20]
          +0.006*[#  22]+0.004*[#  18]+0.004*[#  21]+0.004*[#  24]+0.004*[#  25]
          +0.004*[#  26]+0.003*[#  27]+0.003*[#  31]+0.001*[#   1]
    |psi|^2 = 0.998
==== e(  15) =     9.25262 eV ==== 
     psi = 0.260*[#   6]+0.260*[#   7]+0.260*[#   9]+0.031*[#  23]+0.021*[#  28]
          +0.021*[#  29]+0.021*[#  30]+0.021*[#  32]+0.021*[#  33]+0.021*[#  34]
          +0.006*[#   5]+0.006*[#   8]+0.005*[#  19]+0.005*[#  20]+0.005*[#  22]
          +0.004*[#  10]+0.004*[#  24]+0.004*[#  25]+0.004*[#  26]+0.002*[#  11]
          +0.002*[#  12]+0.002*[#  13]+0.001*[#  27]+0.001*[#  31]+0.001*[#  14]
          
    |psi|^2 = 0.997
==== e(  16) =     9.67526 eV ==== 
     psi = 0.312*[#   6]+0.312*[#   7]+0.312*[#   9]+0.007*[#  28]+0.007*[#  29]
          +0.007*[#  30]+0.007*[#  32]+0.007*[#  33]+0.007*[#  34]+0.004*[#  19]
          +0.004*[#  20]+0.004*[#  22]+0.002*[#   5]+0.002*[#   8]+0.001*[#  18]
          +0.001*[#  21]+0.001*[#  11]+0.001*[#  12]+0.001*[#  13]
    |psi|^2 = 0.999
==== e(  17) =    10.91417 eV ==== 
     psi = 0.165*[#  19]+0.165*[#  20]+0.165*[#  22]+0.066*[#  28]+0.066*[#  29]
          +0.066*[#  30]+0.066*[#  32]+0.066*[#  33]+0.066*[#  34]+0.013*[#   5]
          +0.013*[#   8]+0.011*[#  18]+0.011*[#  21]+0.010*[#  11]+0.010*[#  12]
          +0.010*[#  13]+0.006*[#  27]+0.006*[#  31]+0.004*[#  23]+0.003*[#  24]
          +0.003*[#  25]+0.003*[#  26]
    |psi|^2 = 0.994
==== e(  18) =    11.66691 eV ==== 
     psi = 0.092*[#  28]+0.092*[#  29]+0.092*[#  30]+0.092*[#  32]+0.092*[#  33]
          +0.092*[#  34]+0.048*[#  19]+0.048*[#  20]+0.048*[#  22]+0.037*[#  18]
          +0.037*[#  21]+0.030*[#   6]+0.030*[#   7]+0.030*[#   9]+0.022*[#  23]
          +0.021*[#  10]+0.019*[#  27]+0.019*[#  31]+0.018*[#   5]+0.018*[#   8]
          +0.003*[#  11]+0.003*[#  12]+0.003*[#  13]+0.003*[#  24]+0.003*[#  25]
          +0.003*[#  26]
    |psi|^2 = 0.996
==== e(  19) =    11.79910 eV ==== 
     psi = 0.278*[#  19]+0.278*[#  20]+0.278*[#  22]+0.018*[#  28]+0.018*[#  29]
          +0.018*[#  30]+0.018*[#  32]+0.018*[#  33]+0.018*[#  34]+0.010*[#   6]
          +0.010*[#   7]+0.010*[#   9]+0.006*[#   5]+0.006*[#   8]+0.004*[#  18]
          +0.004*[#  21]+0.002*[#  24]+0.002*[#  25]+0.002*[#  26]
    |psi|^2 = 0.996
==== e(  20) =    12.36583 eV ==== 
     psi = 0.108*[#  28]+0.108*[#  29]+0.108*[#  30]+0.108*[#  32]+0.108*[#  33]
          +0.108*[#  34]+0.071*[#  19]+0.071*[#  20]+0.071*[#  22]+0.014*[#  27]
          +0.014*[#  31]+0.014*[#  23]+0.013*[#  10]+0.010*[#   6]+0.010*[#   7]
          +0.010*[#   9]+0.008*[#  24]+0.008*[#  25]+0.008*[#  26]+0.007*[#   5]
          +0.007*[#   8]+0.003*[#  11]+0.003*[#  12]+0.003*[#  13]
    |psi|^2 = 0.996
==== e(  21) =    13.06622 eV ==== 
     psi = 0.121*[#  28]+0.121*[#  29]+0.121*[#  30]+0.121*[#  32]+0.121*[#  33]
          +0.121*[#  34]+0.058*[#  18]+0.058*[#  21]+0.032*[#   5]+0.032*[#   8]
          +0.017*[#  19]+0.017*[#  20]+0.017*[#  22]+0.010*[#   6]+0.010*[#   7]
          +0.010*[#   9]+0.004*[#  11]+0.004*[#  12]+0.004*[#  13]
    |psi|^2 = 0.996
==== e(  22) =    13.51677 eV ==== 
     psi = 0.099*[#  28]+0.099*[#  29]+0.099*[#  30]+0.099*[#  32]+0.099*[#  33]
          +0.099*[#  34]+0.079*[#   5]+0.079*[#   8]+0.037*[#  19]+0.037*[#  20]
          +0.037*[#  22]+0.020*[#  27]+0.020*[#  31]+0.019*[#  23]+0.009*[#  18]
          +0.009*[#  21]+0.008*[#  24]+0.008*[#  25]+0.008*[#  26]+0.005*[#   6]
          +0.005*[#   7]+0.005*[#   9]+0.004*[#  11]+0.004*[#  12]+0.004*[#  13]
          +0.003*[#  10]
    |psi|^2 = 0.997
==== e(  23) =    13.91548 eV ==== 
     psi = 0.128*[#  28]+0.128*[#  29]+0.128*[#  30]+0.128*[#  32]+0.128*[#  33]
          +0.128*[#  34]+0.040*[#   5]+0.040*[#   8]+0.030*[#  19]+0.030*[#  20]
          +0.030*[#  22]+0.021*[#  18]+0.021*[#  21]+0.004*[#  24]+0.004*[#  25]
          +0.004*[#  26]
    |psi|^2 = 0.997
==== e(  24) =    17.22224 eV ==== 
     psi = 0.218*[#  19]+0.218*[#  20]+0.218*[#  22]+0.054*[#  10]+0.040*[#  27]
          +0.040*[#  31]+0.033*[#  23]+0.015*[#  24]+0.015*[#  25]+0.015*[#  26]
          +0.014*[#  18]+0.014*[#  21]+0.010*[#  28]+0.010*[#  29]+0.010*[#  30]
          +0.010*[#  32]+0.010*[#  33]+0.010*[#  34]+0.006*[#  11]+0.006*[#  12]
          +0.006*[#  13]+0.002*[#   6]+0.002*[#   7]+0.002*[#   9]+0.002*[#   1]
          +0.001*[#  14]
    |psi|^2 = 0.982
==== e(  25) =    18.68684 eV ==== 
     psi = 0.335*[#  18]+0.335*[#  21]+0.041*[#  19]+0.041*[#  20]+0.041*[#  22]
          +0.040*[#  10]+0.028*[#  27]+0.028*[#  31]+0.013*[#  28]+0.013*[#  29]
          +0.013*[#  30]+0.013*[#  32]+0.013*[#  33]+0.013*[#  34]+0.008*[#  23]
          +0.005*[#  11]+0.005*[#  12]+0.005*[#  13]+0.001*[#  24]+0.001*[#  25]
          +0.001*[#  26]
    |psi|^2 = 0.996
==== e(  26) =    19.03838 eV ==== 
     psi = 0.411*[#  18]+0.411*[#  21]+0.026*[#  28]+0.026*[#  29]+0.026*[#  30]
          +0.026*[#  32]+0.026*[#  33]+0.026*[#  34]+0.004*[#   5]+0.004*[#   8]
          +0.002*[#  19]+0.002*[#  20]+0.002*[#  22]+0.002*[#  11]+0.002*[#  12]
          +0.002*[#  13]
    |psi|^2 = 0.996
==== e(  27) =    19.62214 eV ==== 
     psi = 0.095*[#  10]+0.090*[#  27]+0.090*[#  31]+0.085*[#  23]+0.077*[#  18]
          +0.077*[#  21]+0.052*[#  19]+0.052*[#  20]+0.052*[#  22]+0.032*[#  28]
          +0.032*[#  29]+0.032*[#  30]+0.032*[#  32]+0.032*[#  33]+0.032*[#  34]
          +0.028*[#  11]+0.028*[#  12]+0.028*[#  13]+0.015*[#  24]+0.015*[#  25]
          +0.015*[#  26]+0.003*[#  14]+0.002*[#   1]
    |psi|^2 = 0.995
==== e(  28) =    23.91257 eV ==== 
     psi = 0.098*[#  27]+0.098*[#  31]+0.086*[#  11]+0.086*[#  12]+0.086*[#  13]
          +0.078*[#  24]+0.078*[#  25]+0.078*[#  26]+0.040*[#  23]+0.033*[#  10]
          +0.025*[#  28]+0.025*[#  29]+0.025*[#  30]+0.025*[#  32]+0.025*[#  33]
          +0.025*[#  34]+0.005*[#  18]+0.005*[#  21]+0.002*[#  19]+0.002*[#  20]
          +0.002*[#  22]
    |psi|^2 = 0.936
==== e(  29) =    24.41835 eV ==== 
     psi = 0.245*[#  23]+0.205*[#  10]+0.046*[#  28]+0.046*[#  29]+0.046*[#  30]
          +0.046*[#  32]+0.046*[#  33]+0.046*[#  34]+0.034*[#  24]+0.034*[#  25]
          +0.034*[#  26]+0.030*[#  11]+0.030*[#  12]+0.030*[#  13]+0.016*[#  27]
          +0.016*[#  31]+0.007*[#  19]+0.007*[#  20]+0.007*[#  22]
    |psi|^2 = 0.970
==== e(  30) =    29.83376 eV ==== 
     psi = 0.131*[#  11]+0.131*[#  12]+0.131*[#  13]+0.129*[#  10]+0.082*[#  24]
          +0.082*[#  25]+0.082*[#  26]+0.064*[#  23]+0.008*[#   1]+0.005*[#  28]
          +0.005*[#  29]+0.005*[#  30]+0.005*[#  32]+0.005*[#  33]+0.005*[#  34]
          +0.003*[#  14]+0.002*[#  19]+0.002*[#  20]+0.002*[#  22]+0.001*[#  27]
          +0.001*[#  31]
    |psi|^2 = 0.882
==== e(  31) =    30.47869 eV ==== 
     psi = 0.051*[#  23]+0.033*[#  24]+0.033*[#  25]+0.033*[#  26]+0.025*[#  10]
          +0.018*[#  11]+0.018*[#  12]+0.018*[#  13]+0.004*[#  14]+0.002*[#   1]
          +0.002*[#  19]+0.002*[#  20]+0.002*[#  22]
    |psi|^2 = 0.251
==== e(  32) =    32.20980 eV ==== 
     psi = 0.057*[#  23]+0.033*[#  24]+0.033*[#  25]+0.033*[#  26]+0.032*[#  10]
          +0.010*[#  11]+0.010*[#  12]+0.010*[#  13]+0.005*[#  19]+0.005*[#  20]
          +0.005*[#  22]+0.003*[#  14]+0.002*[#  28]+0.002*[#  29]+0.002*[#  30]
          +0.002*[#  32]+0.002*[#  33]+0.002*[#  34]+0.002*[#   1]
    |psi|^2 = 0.250
==== e(  33) =    33.04326 eV ==== 
     psi = 0.180*[#  11]+0.180*[#  12]+0.180*[#  13]+0.116*[#  24]+0.116*[#  25]
          +0.116*[#  26]+0.003*[#  28]+0.003*[#  29]+0.003*[#  30]+0.003*[#  32]
          +0.003*[#  33]+0.003*[#  34]+0.001*[#   2]+0.001*[#   3]+0.001*[#   4]
          
    |psi|^2 = 0.915
==== e(  34) =    33.88131 eV ==== 
     psi = 0.118*[#  24]+0.118*[#  25]+0.118*[#  26]+0.111*[#  11]+0.111*[#  12]
          +0.111*[#  13]+0.014*[#  23]+0.012*[#  10]+0.005*[#  28]+0.005*[#  29]
          +0.005*[#  30]+0.005*[#  32]+0.005*[#  33]+0.005*[#  34]+0.001*[#  18]
          +0.001*[#  21]+0.001*[#   1]+0.001*[#  14]
    |psi|^2 = 0.753
==== e(  35) =    34.87820 eV ==== 
     psi = 0.128*[#  24]+0.128*[#  25]+0.128*[#  26]+0.078*[#  11]+0.078*[#  12]
          +0.078*[#  13]+0.002*[#  28]+0.002*[#  29]+0.002*[#  30]+0.002*[#  32]
          +0.002*[#  33]+0.002*[#  34]+0.001*[#  15]+0.001*[#  16]+0.001*[#  17]
          +0.001*[#  19]+0.001*[#  20]+0.001*[#  22]
    |psi|^2 = 0.644
==== e(  36) =    36.90152 eV ==== 
     psi = 0.066*[#  23]+0.061*[#  10]+0.060*[#  11]+0.060*[#  12]+0.060*[#  13]
          +0.047*[#  24]+0.047*[#  25]+0.047*[#  26]+0.006*[#   1]+0.006*[#  14]
          +0.002*[#  28]+0.002*[#  29]+0.002*[#  30]+0.002*[#  32]+0.002*[#  33]
          +0.002*[#  34]+0.002*[#  27]+0.002*[#  31]
    |psi|^2 = 0.477
==== e(  37) =    37.71504 eV ==== 
     psi = 0.021*[#  24]+0.021*[#  25]+0.021*[#  26]+0.009*[#  27]+0.009*[#  31]
          +0.008*[#  23]+0.001*[#  11]+0.001*[#  12]+0.001*[#  13]
    |psi|^2 = 0.097
==== e(  38) =    40.48217 eV ==== 
     psi = 0.007*[#  24]+0.007*[#  25]+0.007*[#  26]+0.006*[#  11]+0.006*[#  12]
          +0.006*[#  13]
    |psi|^2 = 0.043
==== e(  39) =    40.90409 eV ==== 
     psi = 0.028*[#  24]+0.028*[#  25]+0.028*[#  26]+0.019*[#  11]+0.019*[#  12]
          +0.019*[#  13]+0.001*[#  18]+0.001*[#  21]
    |psi|^2 = 0.144
==== e(  40) =    42.28407 eV ==== 
     psi = 0.011*[#  24]+0.011*[#  25]+0.011*[#  26]+0.010*[#  11]+0.010*[#  12]
          +0.010*[#  13]+0.002*[#  27]+0.002*[#  28]+0.002*[#  29]+0.002*[#  30]
          +0.002*[#  31]+0.002*[#  32]+0.002*[#  33]+0.002*[#  34]
    |psi|^2 = 0.078

 k =   0.5338435427 -0.1902070515 -0.1902070515
==== e(   1) =   -81.44378 eV ==== 
     psi = 0.971*[#   1]+0.006*[#  11]+0.006*[#  12]+0.006*[#  13]+0.003*[#  10]
          +0.001*[#  24]+0.001*[#  25]+0.001*[#  26]
    |psi|^2 = 1.000
==== e(   2) =   -77.90778 eV ==== 
     psi = 0.971*[#  14]+0.006*[#  24]+0.006*[#  25]+0.006*[#  26]+0.003*[#  23]
          +0.001*[#  11]+0.001*[#  12]+0.001*[#  13]
    |psi|^2 = 1.000
==== e(   3) =   -45.64136 eV ==== 
     psi = 0.332*[#   2]+0.332*[#   3]+0.332*[#   4]
    |psi|^2 = 1.000
==== e(   4) =   -44.46036 eV ==== 
     psi = 0.332*[#   2]+0.332*[#   3]+0.332*[#   4]
    |psi|^2 = 1.000
==== e(   5) =   -44.41385 eV ==== 
     psi = 0.331*[#   2]+0.331*[#   3]+0.331*[#   4]+0.002*[#  11]+0.002*[#  12]
          +0.002*[#  13]
    |psi|^2 = 1.000
==== e(   6) =   -41.66652 eV ==== 
     psi = 0.332*[#  15]+0.332*[#  16]+0.332*[#  17]
    |psi|^2 = 1.000
==== e(   7) =   -41.35462 eV ==== 
     psi = 0.331*[#  15]+0.331*[#  16]+0.331*[#  17]
    |psi|^2 = 1.000
==== e(   8) =   -41.30023 eV ==== 
     psi = 0.332*[#  15]+0.332*[#  16]+0.332*[#  17]+0.001*[#  24]+0.001*[#  25]
          +0.001*[#  26]
    |psi|^2 = 1.000
==== e(   9) =    -3.68126 eV ==== 
     psi = 0.339*[#  27]+0.339*[#  31]+0.040*[#  24]+0.040*[#  25]+0.040*[#  26]
          +0.039*[#  10]+0.035*[#  23]+0.032*[#  11]+0.032*[#  12]+0.032*[#  13]
          +0.008*[#   5]+0.008*[#   8]+0.003*[#  14]+0.003*[#   1]+0.001*[#  18]
          +0.001*[#  21]
    |psi|^2 = 1.000
==== e(  10) =    -3.22766 eV ==== 
     psi = 0.385*[#  27]+0.385*[#  31]+0.035*[#  11]+0.035*[#  12]+0.035*[#  13]
          +0.025*[#  24]+0.025*[#  25]+0.025*[#  26]+0.014*[#   5]+0.014*[#   8]
          +0.008*[#  18]+0.008*[#  21]+0.002*[#  23]
    |psi|^2 = 0.999
==== e(  11) =     6.99931 eV ==== 
     psi = 0.171*[#   5]+0.171*[#   8]+0.070*[#   6]+0.070*[#   7]+0.070*[#   9]
          +0.052*[#  28]+0.052*[#  29]+0.052*[#  30]+0.052*[#  32]+0.052*[#  33]
          +0.052*[#  34]+0.041*[#  23]+0.015*[#  24]+0.015*[#  25]+0.015*[#  26]
          +0.008*[#  19]+0.008*[#  20]+0.008*[#  22]+0.006*[#  10]+0.005*[#  11]
          +0.005*[#  12]+0.005*[#  13]+0.002*[#  14]+0.002*[#  27]+0.002*[#  31]
          
    |psi|^2 = 0.999
==== e(  12) =     7.80746 eV ==== 
     psi = 0.172*[#   6]+0.172*[#   7]+0.172*[#   9]+0.064*[#  10]+0.055*[#  28]
          +0.055*[#  29]+0.055*[#  30]+0.055*[#  32]+0.055*[#  33]+0.055*[#  34]
          +0.016*[#  24]+0.016*[#  25]+0.016*[#  26]+0.010*[#  27]+0.010*[#  31]
          +0.006*[#  18]+0.006*[#  21]+0.001*[#   1]
    |psi|^2 = 0.998
==== e(  13) =     8.15424 eV ==== 
     psi = 0.152*[#   6]+0.152*[#   7]+0.152*[#   9]+0.067*[#   5]+0.067*[#   8]
          +0.040*[#  28]+0.040*[#  29]+0.040*[#  30]+0.040*[#  32]+0.040*[#  33]
          +0.040*[#  34]+0.027*[#  11]+0.027*[#  12]+0.027*[#  13]+0.014*[#  19]
          +0.014*[#  20]+0.014*[#  22]+0.009*[#  10]+0.005*[#  18]+0.005*[#  21]
          +0.005*[#  24]+0.005*[#  25]+0.005*[#  26]+0.002*[#  23]+0.002*[#  27]
          +0.002*[#  31]
    |psi|^2 = 0.998
==== e(  14) =     8.29680 eV ==== 
     psi = 0.380*[#   5]+0.380*[#   8]+0.029*[#  28]+0.029*[#  29]+0.029*[#  30]
          +0.029*[#  32]+0.029*[#  33]+0.029*[#  34]+0.020*[#   6]+0.020*[#   7]
          +0.020*[#   9]+0.002*[#  24]+0.002*[#  25]+0.002*[#  26]
    |psi|^2 = 0.999
==== e(  15) =     9.24146 eV ==== 
     psi = 0.081*[#  19]+0.081*[#  20]+0.081*[#  22]+0.077*[#   5]+0.077*[#   8]
          +0.068*[#  28]+0.068*[#  29]+0.068*[#  30]+0.068*[#  32]+0.068*[#  33]
          +0.068*[#  34]+0.029*[#  23]+0.018*[#   6]+0.018*[#   7]+0.018*[#   9]
          +0.017*[#  11]+0.017*[#  12]+0.017*[#  13]+0.016*[#  27]+0.016*[#  31]
          +0.007*[#  24]+0.007*[#  25]+0.007*[#  26]+0.002*[#  18]+0.002*[#  21]
          +0.002*[#  10]
    |psi|^2 = 0.997
==== e(  16) =     9.50086 eV ==== 
     psi = 0.105*[#   6]+0.105*[#   7]+0.105*[#   9]+0.074*[#  28]+0.074*[#  29]
          +0.074*[#  30]+0.074*[#  32]+0.074*[#  33]+0.074*[#  34]+0.034*[#  10]
          +0.032*[#  23]+0.022*[#  11]+0.022*[#  12]+0.022*[#  13]+0.015*[#  18]
          +0.015*[#  21]+0.013*[#  19]+0.013*[#  20]+0.013*[#  22]+0.008*[#  24]
          +0.008*[#  25]+0.008*[#  26]+0.002*[#   5]+0.002*[#   8]+0.002*[#  27]
          +0.002*[#  31]+0.002*[#   1]
    |psi|^2 = 0.997
==== e(  17) =    10.08900 eV ==== 
     psi = 0.267*[#   6]+0.267*[#   7]+0.267*[#   9]+0.030*[#   5]+0.030*[#   8]
          +0.016*[#  28]+0.016*[#  29]+0.016*[#  30]+0.016*[#  32]+0.016*[#  33]
          +0.016*[#  34]+0.007*[#  19]+0.007*[#  20]+0.007*[#  22]+0.005*[#  18]
          +0.005*[#  21]+0.003*[#  11]+0.003*[#  12]+0.003*[#  13]
    |psi|^2 = 0.999
==== e(  18) =    11.37440 eV ==== 
     psi = 0.135*[#   6]+0.135*[#   7]+0.135*[#   9]+0.066*[#  28]+0.066*[#  29]
          +0.066*[#  30]+0.066*[#  32]+0.066*[#  33]+0.066*[#  34]+0.026*[#  24]
          +0.026*[#  25]+0.026*[#  26]+0.019*[#   5]+0.019*[#   8]+0.016*[#  10]
          +0.014*[#  27]+0.014*[#  31]+0.012*[#  23]+0.004*[#  18]+0.004*[#  21]
          +0.003*[#  19]+0.003*[#  20]+0.003*[#  22]+0.001*[#  11]+0.001*[#  12]
          +0.001*[#  13]
    |psi|^2 = 0.998
==== e(  19) =    11.52123 eV ==== 
     psi = 0.149*[#  19]+0.149*[#  20]+0.149*[#  22]+0.058*[#  28]+0.058*[#  29]
          +0.058*[#  30]+0.058*[#  32]+0.058*[#  33]+0.058*[#  34]+0.039*[#   6]
          +0.039*[#   7]+0.039*[#   9]+0.035*[#  18]+0.035*[#  21]+0.004*[#  11]
          +0.004*[#  12]+0.004*[#  13]+0.002*[#   5]+0.002*[#   8]
    |psi|^2 = 0.997
==== e(  20) =    12.25624 eV ==== 
     psi = 0.195*[#  19]+0.195*[#  20]+0.195*[#  22]+0.055*[#  28]+0.055*[#  29]
          +0.055*[#  30]+0.055*[#  32]+0.055*[#  33]+0.055*[#  34]+0.013*[#  18]
          +0.013*[#  21]+0.009*[#  23]+0.006*[#  11]+0.006*[#  12]+0.006*[#  13]
          +0.004*[#  27]+0.004*[#  31]+0.003*[#   5]+0.003*[#   8]+0.002*[#   6]
          +0.002*[#   7]+0.002*[#   9]+0.002*[#  10]
    |psi|^2 = 0.992
==== e(  21) =    12.97848 eV ==== 
     psi = 0.134*[#   5]+0.134*[#   8]+0.085*[#  28]+0.085*[#  29]+0.085*[#  30]
          +0.085*[#  32]+0.085*[#  33]+0.085*[#  34]+0.024*[#  27]+0.024*[#  31]
          +0.019*[#  19]+0.019*[#  20]+0.019*[#  22]+0.018*[#  23]+0.014*[#  18]
          +0.014*[#  21]+0.010*[#  24]+0.010*[#  25]+0.010*[#  26]+0.007*[#  10]
          +0.007*[#   6]+0.007*[#   7]+0.007*[#   9]+0.003*[#  11]+0.003*[#  12]
          +0.003*[#  13]
    |psi|^2 = 0.996
==== e(  22) =    13.14904 eV ==== 
     psi = 0.120*[#  19]+0.120*[#  20]+0.120*[#  22]+0.081*[#  28]+0.081*[#  29]
          +0.081*[#  30]+0.081*[#  32]+0.081*[#  33]+0.081*[#  34]+0.041*[#   5]
          +0.041*[#   8]+0.023*[#  18]+0.023*[#  21]+0.005*[#  24]+0.005*[#  25]
          +0.005*[#  26]+0.004*[#  11]+0.004*[#  12]+0.004*[#  13]
    |psi|^2 = 0.998
==== e(  23) =    14.01942 eV ==== 
     psi = 0.116*[#  28]+0.116*[#  29]+0.116*[#  30]+0.116*[#  32]+0.116*[#  33]
          +0.116*[#  34]+0.053*[#  19]+0.053*[#  20]+0.053*[#  22]+0.045*[#   5]
          +0.045*[#   8]+0.008*[#  24]+0.008*[#  25]+0.008*[#  26]+0.007*[#   6]
          +0.007*[#   7]+0.007*[#   9]+0.002*[#  18]+0.002*[#  21]
    |psi|^2 = 0.998
==== e(  24) =    18.03711 eV ==== 
     psi = 0.251*[#  19]+0.251*[#  20]+0.251*[#  22]+0.048*[#  18]+0.048*[#  21]
          +0.019*[#  10]+0.016*[#  27]+0.016*[#  31]+0.010*[#  24]+0.010*[#  25]
          +0.010*[#  26]+0.005*[#  11]+0.005*[#  12]+0.005*[#  13]+0.005*[#  28]
          +0.005*[#  29]+0.005*[#  30]+0.005*[#  32]+0.005*[#  33]+0.005*[#  34]
          +0.005*[#  23]
    |psi|^2 = 0.987
==== e(  25) =    18.84733 eV ==== 
     psi = 0.323*[#  18]+0.323*[#  21]+0.051*[#  19]+0.051*[#  20]+0.051*[#  22]
          +0.032*[#  10]+0.029*[#  27]+0.029*[#  31]+0.013*[#  11]+0.013*[#  12]
          +0.013*[#  13]+0.011*[#  28]+0.011*[#  29]+0.011*[#  30]+0.011*[#  32]
          +0.011*[#  33]+0.011*[#  34]
    |psi|^2 = 0.997
==== e(  26) =    19.08208 eV ==== 
     psi = 0.433*[#  18]+0.433*[#  21]+0.018*[#  28]+0.018*[#  29]+0.018*[#  30]
          +0.018*[#  32]+0.018*[#  33]+0.018*[#  34]+0.004*[#  11]+0.004*[#  12]
          +0.004*[#  13]+0.003*[#  19]+0.003*[#  20]+0.003*[#  22]+0.001*[#   5]
          +0.001*[#   8]
    |psi|^2 = 0.998
==== e(  27) =    21.66980 eV ==== 
     psi = 0.074*[#  27]+0.074*[#  31]+0.060*[#  10]+0.056*[#  11]+0.056*[#  12]
          +0.056*[#  13]+0.050*[#  23]+0.049*[#  24]+0.049*[#  25]+0.049*[#  26]
          +0.048*[#  18]+0.048*[#  21]+0.045*[#  28]+0.045*[#  29]+0.045*[#  30]
          +0.045*[#  32]+0.045*[#  33]+0.045*[#  34]+0.009*[#  19]+0.009*[#  20]
          +0.009*[#  22]+0.003*[#  14]+0.002*[#   5]+0.002*[#   8]+0.002*[#   1]
          
    |psi|^2 = 0.983
==== e(  28) =    23.85396 eV ==== 
     psi = 0.193*[#  23]+0.179*[#  10]+0.053*[#  24]+0.053*[#  25]+0.053*[#  26]
          +0.047*[#  28]+0.047*[#  29]+0.047*[#  30]+0.047*[#  32]+0.047*[#  33]
          +0.047*[#  34]+0.035*[#  11]+0.035*[#  12]+0.035*[#  13]+0.008*[#  19]
          +0.008*[#  20]+0.008*[#  22]+0.007*[#  18]+0.007*[#  21]+0.004*[#  27]
          +0.004*[#  31]
    |psi|^2 = 0.971
==== e(  29) =    25.88342 eV ==== 
     psi = 0.186*[#  10]+0.096*[#  11]+0.096*[#  12]+0.096*[#  13]+0.089*[#  23]
          +0.073*[#  24]+0.073*[#  25]+0.073*[#  26]+0.054*[#  27]+0.054*[#  31]
          +0.006*[#   1]+0.003*[#  19]+0.003*[#  20]+0.003*[#  22]+0.002*[#  14]
          
    |psi|^2 = 0.912
==== e(  30) =    26.95033 eV ==== 
     psi = 0.284*[#  10]+0.099*[#  11]+0.099*[#  12]+0.099*[#  13]+0.098*[#  23]
          +0.016*[#  24]+0.016*[#  25]+0.016*[#  26]+0.015*[#  28]+0.015*[#  29]
          +0.015*[#  30]+0.015*[#  32]+0.015*[#  33]+0.015*[#  34]+0.009*[#   1]
          +0.005*[#  27]+0.005*[#  31]+0.004*[#  14]+0.002*[#   6]+0.002*[#   7]
          +0.002*[#   9]+0.002*[#  18]+0.002*[#  21]
    |psi|^2 = 0.854
==== e(  31) =    27.42381 eV ==== 
     psi = 0.303*[#  23]+0.102*[#  24]+0.102*[#  25]+0.102*[#  26]+0.031*[#  11]
          +0.031*[#  12]+0.031*[#  13]+0.024*[#  28]+0.024*[#  29]+0.024*[#  30]
          +0.024*[#  32]+0.024*[#  33]+0.024*[#  34]+0.008*[#  14]+0.005*[#  19]
          +0.005*[#  20]+0.005*[#  22]+0.003*[#  27]+0.003*[#  31]+0.002*[#  10]
          
    |psi|^2 = 0.875
==== e(  32) =    29.75903 eV ==== 
     psi = 0.068*[#  24]+0.068*[#  25]+0.068*[#  26]+0.060*[#  11]+0.060*[#  12]
          +0.060*[#  13]+0.027*[#  23]+0.018*[#  10]+0.002*[#  19]+0.002*[#  20]
          +0.002*[#  22]+0.002*[#  28]+0.002*[#  29]+0.002*[#  30]+0.002*[#  32]
          +0.002*[#  33]+0.002*[#  34]+0.001*[#  14]
    |psi|^2 = 0.453
==== e(  33) =    32.64508 eV ==== 
     psi = 0.284*[#  11]+0.284*[#  12]+0.284*[#  13]+0.007*[#  24]+0.007*[#  25]
          +0.007*[#  26]+0.007*[#  28]+0.007*[#  29]+0.007*[#  30]+0.007*[#  32]
          +0.007*[#  33]+0.007*[#  34]+0.002*[#   2]+0.002*[#   3]+0.002*[#   4]
          +0.002*[#  18]+0.002*[#  21]
    |psi|^2 = 0.923
==== e(  34) =    33.10671 eV ==== 
     psi = 0.084*[#  24]+0.084*[#  25]+0.084*[#  26]+0.070*[#  11]+0.070*[#  12]
          +0.070*[#  13]+0.016*[#  23]+0.011*[#  10]+0.009*[#  28]+0.009*[#  29]
          +0.009*[#  30]+0.009*[#  32]+0.009*[#  33]+0.009*[#  34]+0.001*[#  19]
          +0.001*[#  20]+0.001*[#  22]
    |psi|^2 = 0.551
==== e(  35) =    33.19285 eV ==== 
     psi = 0.287*[#  24]+0.287*[#  25]+0.287*[#  26]+0.011*[#  11]+0.011*[#  12]
          +0.011*[#  13]+0.007*[#  28]+0.007*[#  29]+0.007*[#  30]+0.007*[#  32]
          +0.007*[#  33]+0.007*[#  34]+0.002*[#  15]+0.002*[#  16]+0.002*[#  17]
          
    |psi|^2 = 0.942
==== e(  36) =    34.93640 eV ==== 
     psi = 0.014*[#  24]+0.014*[#  25]+0.014*[#  26]+0.013*[#  11]+0.013*[#  12]
          +0.013*[#  13]+0.010*[#  27]+0.010*[#  31]+0.002*[#  28]+0.002*[#  29]
          +0.002*[#  30]+0.002*[#  32]+0.002*[#  33]+0.002*[#  34]
    |psi|^2 = 0.120
==== e(  37) =    38.71586 eV ==== 
     psi = 0.019*[#  23]+0.018*[#  24]+0.018*[#  25]+0.018*[#  26]+0.014*[#  10]
          +0.015*[#  11]+0.015*[#  12]+0.015*[#  13]+0.002*[#  28]+0.002*[#  29]
          +0.002*[#  30]+0.002*[#  32]+0.002*[#  33]+0.002*[#  34]
    |psi|^2 = 0.146
==== e(  38) =    41.04615 eV ==== 
     psi = 0.001*[#  11]+0.001*[#  12]+0.001*[#  13]
    |psi|^2 = 0.009
==== e(  39) =    43.05041 eV ==== 
 
    |psi|^2 = 0.002
==== e(  40) =    43.14793 eV ==== 
     psi = 0.003*[#  11]+0.003*[#  12]+0.003*[#  13]+0.003*[#  24]+0.003*[#  25]
          +0.003*[#  26]+0.002*[#  23]+0.001*[#  10]+0.001*[#  28]+0.001*[#  29]
          +0.001*[#  30]+0.001*[#  32]+0.001*[#  33]+0.001*[#  34]
    |psi|^2 = 0.031

 k =  -0.8007653140  0.2853105772  0.2853105772
==== e(   1) =   -81.44198 eV ==== 
     psi = 0.988*[#   1]+0.004*[#  10]+0.001*[#  24]+0.001*[#  25]+0.001*[#  26]
          
    |psi|^2 = 1.000
==== e(   2) =   -77.90519 eV ==== 
     psi = 0.989*[#  14]+0.003*[#  23]+0.001*[#  11]+0.001*[#  12]+0.001*[#  13]
          
    |psi|^2 = 1.000
==== e(   3) =   -45.63795 eV ==== 
     psi = 0.332*[#   2]+0.332*[#   3]+0.332*[#   4]
    |psi|^2 = 1.000
==== e(   4) =   -44.48062 eV ==== 
     psi = 0.331*[#   2]+0.331*[#   3]+0.331*[#   4]+0.002*[#  11]+0.002*[#  12]
          +0.002*[#  13]
    |psi|^2 = 1.000
==== e(   5) =   -44.41813 eV ==== 
     psi = 0.331*[#   2]+0.331*[#   3]+0.331*[#   4]+0.001*[#  11]+0.001*[#  12]
          +0.001*[#  13]
    |psi|^2 = 1.000
==== e(   6) =   -41.66256 eV ==== 
     psi = 0.332*[#  15]+0.332*[#  16]+0.332*[#  17]
    |psi|^2 = 1.000
==== e(   7) =   -41.37863 eV ==== 
     psi = 0.331*[#  15]+0.331*[#  16]+0.331*[#  17]+0.002*[#  24]+0.002*[#  25]
          +0.002*[#  26]
    |psi|^2 = 1.000
==== e(   8) =   -41.30557 eV ==== 
     psi = 0.332*[#  15]+0.332*[#  16]+0.332*[#  17]+0.001*[#  24]+0.001*[#  25]
          +0.001*[#  26]
    |psi|^2 = 1.000
==== e(   9) =    -3.26105 eV ==== 
     psi = 0.386*[#  27]+0.386*[#  31]+0.047*[#  24]+0.047*[#  25]+0.047*[#  26]
          +0.032*[#   5]+0.032*[#   8]+0.017*[#  10]
    |psi|^2 = 0.999
==== e(  10) =    -3.00342 eV ==== 
     psi = 0.401*[#  27]+0.401*[#  31]+0.051*[#  11]+0.051*[#  12]+0.051*[#  13]
          +0.016*[#  23]+0.014*[#  18]+0.014*[#  21]
    |psi|^2 = 0.999
==== e(  11) =     6.89614 eV ==== 
     psi = 0.101*[#   6]+0.101*[#   7]+0.101*[#   9]+0.077*[#   5]+0.077*[#   8]
          +0.063*[#  28]+0.063*[#  29]+0.063*[#  30]+0.063*[#  32]+0.063*[#  33]
          +0.063*[#  34]+0.043*[#  10]+0.038*[#  24]+0.038*[#  25]+0.038*[#  26]
          +0.002*[#   1]
    |psi|^2 = 1.000
==== e(  12) =     7.42779 eV ==== 
     psi = 0.138*[#   6]+0.138*[#   7]+0.138*[#   9]+0.122*[#   5]+0.122*[#   8]
          +0.041*[#  28]+0.041*[#  29]+0.041*[#  30]+0.041*[#  32]+0.041*[#  33]
          +0.041*[#  34]+0.040*[#  10]+0.015*[#  24]+0.015*[#  25]+0.015*[#  26]
          +0.005*[#  27]+0.005*[#  31]
    |psi|^2 = 0.998
==== e(  13) =     7.69803 eV ==== 
     psi = 0.088*[#  28]+0.088*[#  29]+0.088*[#  30]+0.088*[#  32]+0.088*[#  33]
          +0.088*[#  34]+0.087*[#  23]+0.078*[#  19]+0.078*[#  20]+0.078*[#  22]
          +0.046*[#  11]+0.046*[#  12]+0.046*[#  13]+0.003*[#  18]+0.003*[#  21]
          +0.003*[#  14]+0.001*[#  27]+0.001*[#  31]
    |psi|^2 = 0.998
==== e(  14) =     8.20831 eV ==== 
     psi = 0.352*[#   5]+0.352*[#   8]+0.034*[#   6]+0.034*[#   7]+0.034*[#   9]
          +0.031*[#  28]+0.031*[#  29]+0.031*[#  30]+0.031*[#  32]+0.031*[#  33]
          +0.031*[#  34]+0.002*[#  24]+0.002*[#  25]+0.002*[#  26]
    |psi|^2 = 0.999
==== e(  15) =     8.75900 eV ==== 
     psi = 0.231*[#   6]+0.231*[#   7]+0.231*[#   9]+0.098*[#   5]+0.098*[#   8]
          +0.014*[#  28]+0.014*[#  29]+0.014*[#  30]+0.014*[#  32]+0.014*[#  33]
          +0.014*[#  34]+0.008*[#  27]+0.008*[#  31]+0.002*[#  10]+0.002*[#  24]
          +0.002*[#  25]+0.002*[#  26]
    |psi|^2 = 0.998
==== e(  16) =     9.89236 eV ==== 
     psi = 0.113*[#  28]+0.113*[#  29]+0.113*[#  30]+0.113*[#  32]+0.113*[#  33]
          +0.113*[#  34]+0.047*[#  18]+0.047*[#  21]+0.044*[#  11]+0.044*[#  12]
          +0.044*[#  13]+0.022*[#  19]+0.022*[#  20]+0.022*[#  22]+0.021*[#  23]
          +0.002*[#  27]+0.002*[#  31]+0.001*[#   2]+0.001*[#   3]+0.001*[#   4]
          
    |psi|^2 = 0.996
==== e(  17) =    10.59946 eV ==== 
     psi = 0.289*[#   6]+0.289*[#   7]+0.289*[#   9]+0.066*[#   5]+0.066*[#   8]
          
    |psi|^2 = 1.000
==== e(  18) =    11.08722 eV ==== 
     psi = 0.113*[#  19]+0.113*[#  20]+0.113*[#  22]+0.089*[#  28]+0.089*[#  29]
          +0.089*[#  30]+0.089*[#  32]+0.089*[#  33]+0.089*[#  34]+0.049*[#  18]
          +0.049*[#  21]+0.009*[#  11]+0.009*[#  12]+0.009*[#  13]
    |psi|^2 = 0.998
==== e(  19) =    11.33584 eV ==== 
     psi = 0.189*[#   6]+0.189*[#   7]+0.189*[#   9]+0.055*[#  28]+0.055*[#  29]
          +0.055*[#  30]+0.055*[#  32]+0.055*[#  33]+0.055*[#  34]+0.033*[#  10]
          +0.019*[#  24]+0.019*[#  25]+0.019*[#  26]+0.003*[#  27]+0.003*[#  31]
          +0.002*[#   5]+0.002*[#   8]
    |psi|^2 = 0.998
==== e(  20) =    12.14359 eV ==== 
     psi = 0.230*[#  19]+0.230*[#  20]+0.230*[#  22]+0.042*[#  28]+0.042*[#  29]
          +0.042*[#  30]+0.042*[#  32]+0.042*[#  33]+0.042*[#  34]+0.013*[#  23]
          +0.007*[#  18]+0.007*[#  21]+0.005*[#  11]+0.005*[#  12]+0.005*[#  13]
          +0.002*[#  27]+0.002*[#  31]
    |psi|^2 = 0.989
==== e(  21) =    13.07565 eV ==== 
     psi = 0.165*[#   5]+0.165*[#   8]+0.082*[#  28]+0.082*[#  29]+0.082*[#  30]
          +0.082*[#  32]+0.082*[#  33]+0.082*[#  34]+0.031*[#  24]+0.031*[#  25]
          +0.031*[#  26]+0.028*[#  27]+0.028*[#  31]+0.016*[#  10]+0.003*[#   6]
          +0.003*[#   7]+0.003*[#   9]
    |psi|^2 = 0.996
==== e(  22) =    13.56015 eV ==== 
     psi = 0.217*[#  19]+0.217*[#  20]+0.217*[#  22]+0.053*[#  28]+0.053*[#  29]
          +0.053*[#  30]+0.053*[#  32]+0.053*[#  33]+0.053*[#  34]+0.006*[#  11]
          +0.006*[#  12]+0.006*[#  13]+0.006*[#  18]+0.006*[#  21]
    |psi|^2 = 0.999
==== e(  23) =    13.81306 eV ==== 
     psi = 0.126*[#  28]+0.126*[#  29]+0.126*[#  30]+0.126*[#  32]+0.126*[#  33]
          +0.126*[#  34]+0.081*[#   5]+0.081*[#   8]+0.016*[#  24]+0.016*[#  25]
          +0.016*[#  26]+0.010*[#   6]+0.010*[#   7]+0.010*[#   9]
    |psi|^2 = 0.998
==== e(  24) =    18.59564 eV ==== 
     psi = 0.300*[#  19]+0.300*[#  20]+0.300*[#  22]+0.025*[#  18]+0.025*[#  21]
          +0.005*[#  28]+0.005*[#  29]+0.005*[#  30]+0.005*[#  32]+0.005*[#  33]
          +0.005*[#  34]+0.003*[#  11]+0.003*[#  12]+0.003*[#  13]+0.001*[#  27]
          +0.001*[#  31]+0.001*[#  23]
    |psi|^2 = 0.992
==== e(  25) =    19.02944 eV ==== 
     psi = 0.367*[#  18]+0.367*[#  21]+0.037*[#  27]+0.037*[#  31]+0.027*[#  11]
          +0.027*[#  12]+0.027*[#  13]+0.023*[#  19]+0.023*[#  20]+0.023*[#  22]
          +0.006*[#  28]+0.006*[#  29]+0.006*[#  30]+0.006*[#  32]+0.006*[#  33]
          +0.006*[#  34]
    |psi|^2 = 0.996
==== e(  26) =    19.12222 eV ==== 
     psi = 0.443*[#  18]+0.443*[#  21]+0.014*[#  28]+0.014*[#  29]+0.014*[#  30]
          +0.014*[#  32]+0.014*[#  33]+0.014*[#  34]+0.005*[#  11]+0.005*[#  12]
          +0.005*[#  13]+0.003*[#  19]+0.003*[#  20]+0.003*[#  22]
    |psi|^2 = 0.998
==== e(  27) =    23.26737 eV ==== 
     psi = 0.201*[#  24]+0.201*[#  25]+0.201*[#  26]+0.056*[#  27]+0.056*[#  31]
          +0.033*[#  28]+0.033*[#  29]+0.033*[#  30]+0.033*[#  32]+0.033*[#  33]
          +0.033*[#  34]+0.031*[#  10]+0.004*[#   5]+0.004*[#   8]
    |psi|^2 = 0.952
==== e(  28) =    23.41701 eV ==== 
     psi = 0.191*[#  11]+0.191*[#  12]+0.191*[#  13]+0.039*[#  27]+0.039*[#  31]
          +0.037*[#  28]+0.037*[#  29]+0.037*[#  30]+0.037*[#  32]+0.037*[#  33]
          +0.037*[#  34]+0.036*[#  18]+0.036*[#  21]+0.004*[#  23]+0.003*[#  19]
          +0.003*[#  20]+0.003*[#  22]
    |psi|^2 = 0.959
==== e(  29) =    24.31745 eV ==== 
     psi = 0.786*[#  10]+0.024*[#  24]+0.024*[#  25]+0.024*[#  26]+0.017*[#  28]
          +0.017*[#  29]+0.017*[#  30]+0.017*[#  32]+0.017*[#  33]+0.017*[#  34]
          +0.008*[#   1]+0.002*[#  27]+0.002*[#  31]+0.001*[#   6]+0.001*[#   7]
          +0.001*[#   9]
    |psi|^2 = 0.974
==== e(  30) =    24.94987 eV ==== 
     psi = 0.810*[#  23]+0.024*[#  11]+0.024*[#  12]+0.024*[#  13]+0.011*[#  28]
          +0.011*[#  29]+0.011*[#  30]+0.011*[#  32]+0.011*[#  33]+0.011*[#  34]
          +0.007*[#  14]+0.006*[#  27]+0.006*[#  31]+0.002*[#  19]+0.002*[#  20]
          +0.002*[#  22]
    |psi|^2 = 0.978
==== e(  31) =    28.30372 eV ==== 
     psi = 0.173*[#  24]+0.173*[#  25]+0.173*[#  26]+0.015*[#  28]+0.015*[#  29]
          +0.015*[#  30]+0.015*[#  32]+0.015*[#  33]+0.015*[#  34]+0.002*[#   6]
          +0.002*[#   7]+0.002*[#   9]+0.002*[#  27]+0.002*[#  31]
    |psi|^2 = 0.624
==== e(  32) =    28.32758 eV ==== 
     psi = 0.186*[#  11]+0.186*[#  12]+0.186*[#  13]+0.019*[#  28]+0.019*[#  29]
          +0.019*[#  30]+0.019*[#  32]+0.019*[#  33]+0.019*[#  34]+0.009*[#  23]
          +0.007*[#  19]+0.007*[#  20]+0.007*[#  22]+0.003*[#  27]+0.003*[#  31]
          
    |psi|^2 = 0.710
==== e(  33) =    32.01583 eV ==== 
     psi = 0.293*[#  11]+0.293*[#  12]+0.293*[#  13]+0.009*[#  28]+0.009*[#  29]
          +0.009*[#  30]+0.009*[#  32]+0.009*[#  33]+0.009*[#  34]+0.002*[#  18]
          +0.002*[#  21]+0.002*[#   2]+0.002*[#   3]+0.002*[#   4]
    |psi|^2 = 0.941
==== e(  34) =    32.48656 eV ==== 
     psi = 0.293*[#  24]+0.293*[#  25]+0.293*[#  26]+0.008*[#  28]+0.008*[#  29]
          +0.008*[#  30]+0.008*[#  32]+0.008*[#  33]+0.008*[#  34]+0.001*[#  15]
          +0.001*[#  16]+0.001*[#  17]
    |psi|^2 = 0.932
==== e(  35) =    33.94966 eV ==== 
     psi = 0.099*[#  24]+0.099*[#  25]+0.099*[#  26]+0.014*[#  10]+0.010*[#  28]
          +0.010*[#  29]+0.010*[#  30]+0.010*[#  32]+0.010*[#  33]+0.010*[#  34]
          +0.005*[#  27]+0.005*[#  31]
    |psi|^2 = 0.381
==== e(  36) =    34.01305 eV ==== 
     psi = 0.075*[#  11]+0.075*[#  12]+0.075*[#  13]+0.018*[#  23]+0.009*[#  28]
          +0.009*[#  29]+0.009*[#  30]+0.009*[#  32]+0.009*[#  33]+0.009*[#  34]
          +0.003*[#  27]+0.003*[#  31]+0.001*[#  19]+0.001*[#  20]+0.001*[#  22]
          
    |psi|^2 = 0.308
==== e(  37) =    41.69066 eV ==== 
     psi = 0.009*[#  10]+0.004*[#  24]+0.004*[#  25]+0.004*[#  26]
    |psi|^2 = 0.023
==== e(  38) =    41.80883 eV ==== 
     psi = 0.013*[#  23]+0.001*[#  11]+0.001*[#  12]+0.001*[#  13]
    |psi|^2 = 0.021
==== e(  39) =    43.80854 eV ==== 
     psi = 0.010*[#  24]+0.010*[#  25]+0.010*[#  26]
    |psi|^2 = 0.035
==== e(  40) =    44.03249 eV ==== 
 
    |psi|^2 = 0.008

 k =   0.1718182456  0.1718182456 -0.1902070515
==== e(   1) =   -81.44753 eV ==== 
     psi = 0.962*[#   1]+0.010*[#  11]+0.010*[#  12]+0.010*[#  13]+0.002*[#  24]
          +0.002*[#  25]+0.002*[#  26]
    |psi|^2 = 1.000
==== e(   2) =   -77.91291 eV ==== 
     psi = 0.961*[#  14]+0.010*[#  24]+0.010*[#  25]+0.010*[#  26]+0.002*[#  11]
          +0.002*[#  12]+0.002*[#  13]
    |psi|^2 = 1.000
==== e(   3) =   -45.64643 eV ==== 
     psi = 0.331*[#   2]+0.331*[#   3]+0.331*[#   4]+0.002*[#  24]+0.002*[#  25]
          +0.002*[#  26]
    |psi|^2 = 1.000
==== e(   4) =   -44.41913 eV ==== 
     psi = 0.332*[#   2]+0.332*[#   3]+0.332*[#   4]+0.002*[#  10]
    |psi|^2 = 1.000
==== e(   5) =   -44.40355 eV ==== 
     psi = 0.330*[#   2]+0.330*[#   3]+0.330*[#   4]+0.003*[#  11]+0.003*[#  12]
          +0.003*[#  13]
    |psi|^2 = 1.000
==== e(   6) =   -41.67320 eV ==== 
     psi = 0.331*[#  15]+0.331*[#  16]+0.331*[#  17]+0.002*[#  11]+0.002*[#  12]
          +0.002*[#  13]
    |psi|^2 = 1.000
==== e(   7) =   -41.30629 eV ==== 
     psi = 0.332*[#  15]+0.332*[#  16]+0.332*[#  17]+0.002*[#  23]
    |psi|^2 = 1.000
==== e(   8) =   -41.28826 eV ==== 
     psi = 0.331*[#  15]+0.331*[#  16]+0.331*[#  17]+0.002*[#  24]+0.002*[#  25]
          +0.002*[#  26]
    |psi|^2 = 1.000
==== e(   9) =    -4.46620 eV ==== 
     psi = 0.301*[#  27]+0.301*[#  31]+0.103*[#  10]+0.098*[#  23]+0.030*[#  11]
          +0.030*[#  12]+0.030*[#  13]+0.030*[#  24]+0.030*[#  25]+0.030*[#  26]
          +0.006*[#  14]+0.005*[#   1]
    |psi|^2 = 1.000
==== e(  10) =    -3.56754 eV ==== 
     psi = 0.340*[#  27]+0.340*[#  31]+0.049*[#  11]+0.049*[#  12]+0.049*[#  13]
          +0.048*[#  24]+0.048*[#  25]+0.048*[#  26]+0.007*[#   5]+0.007*[#   8]
          +0.003*[#  23]+0.003*[#  10]+0.003*[#  18]+0.003*[#  21]
    |psi|^2 = 0.999
==== e(  11) =     6.58302 eV ==== 
     psi = 0.134*[#   6]+0.134*[#   7]+0.134*[#   9]+0.086*[#  10]+0.070*[#  23]
          +0.058*[#  28]+0.058*[#  29]+0.058*[#  30]+0.058*[#  32]+0.058*[#  33]
          +0.058*[#  34]+0.016*[#  11]+0.016*[#  12]+0.016*[#  13]+0.010*[#  24]
          +0.010*[#  25]+0.010*[#  26]+0.003*[#   1]+0.003*[#  14]+0.003*[#  19]
          +0.003*[#  20]+0.003*[#  22]+0.001*[#  27]+0.001*[#  31]
    |psi|^2 = 0.999
==== e(  12) =     7.96941 eV ==== 
     psi = 0.344*[#   5]+0.344*[#   8]+0.036*[#  28]+0.036*[#  29]+0.036*[#  30]
          +0.036*[#  32]+0.036*[#  33]+0.036*[#  34]+0.020*[#   6]+0.020*[#   7]
          +0.020*[#   9]+0.007*[#  24]+0.007*[#  25]+0.007*[#  26]+0.003*[#  11]
          +0.003*[#  12]+0.003*[#  13]+0.002*[#  23]+0.002*[#  19]+0.002*[#  20]
          +0.002*[#  22]
    |psi|^2 = 0.999
==== e(  13) =     8.35774 eV ==== 
     psi = 0.418*[#   5]+0.418*[#   8]+0.025*[#  28]+0.025*[#  29]+0.025*[#  30]
          +0.025*[#  32]+0.025*[#  33]+0.025*[#  34]+0.002*[#  19]+0.002*[#  20]
          +0.002*[#  22]
    |psi|^2 = 0.999
==== e(  14) =     9.10194 eV ==== 
     psi = 0.230*[#   6]+0.230*[#   7]+0.230*[#   9]+0.040*[#  10]+0.034*[#  28]
          +0.034*[#  29]+0.034*[#  30]+0.034*[#  32]+0.034*[#  33]+0.034*[#  34]
          +0.011*[#  23]+0.008*[#  19]+0.008*[#  20]+0.008*[#  22]+0.005*[#  24]
          +0.005*[#  25]+0.005*[#  26]+0.002*[#  27]+0.002*[#  31]+0.001*[#   5]
          +0.001*[#   8]
    |psi|^2 = 0.998
==== e(  15) =     9.32744 eV ==== 
     psi = 0.225*[#   6]+0.225*[#   7]+0.225*[#   9]+0.042*[#  23]+0.037*[#   5]
          +0.037*[#   8]+0.026*[#  28]+0.026*[#  29]+0.026*[#  30]+0.026*[#  32]
          +0.026*[#  33]+0.026*[#  34]+0.007*[#  10]+0.006*[#  19]+0.006*[#  20]
          +0.006*[#  22]+0.004*[#  27]+0.004*[#  31]+0.003*[#  24]+0.003*[#  25]
          +0.003*[#  26]+0.002*[#  11]+0.002*[#  12]+0.002*[#  13]+0.001*[#  14]
          
    |psi|^2 = 0.998
==== e(  16) =     9.67387 eV ==== 
     psi = 0.312*[#   6]+0.312*[#   7]+0.312*[#   9]+0.007*[#  28]+0.007*[#  29]
          +0.007*[#  30]+0.007*[#  32]+0.007*[#  33]+0.007*[#  34]+0.003*[#  19]
          +0.003*[#  20]+0.003*[#  22]+0.002*[#  18]+0.002*[#  21]+0.001*[#   5]
          +0.001*[#   8]+0.001*[#  11]+0.001*[#  12]+0.001*[#  13]
    |psi|^2 = 0.998
==== e(  17) =    10.71134 eV ==== 
     psi = 0.125*[#  19]+0.125*[#  20]+0.125*[#  22]+0.075*[#  28]+0.075*[#  29]
          +0.075*[#  30]+0.075*[#  32]+0.075*[#  33]+0.075*[#  34]+0.026*[#  23]
          +0.015*[#  27]+0.015*[#  31]+0.014*[#  10]+0.012*[#   6]+0.012*[#   7]
          +0.012*[#   9]+0.011*[#  18]+0.011*[#  21]+0.008*[#  11]+0.008*[#  12]
          +0.008*[#  13]+0.007*[#   5]+0.007*[#   8]
    |psi|^2 = 0.994
==== e(  18) =    11.76040 eV ==== 
     psi = 0.096*[#  28]+0.096*[#  29]+0.096*[#  30]+0.096*[#  32]+0.096*[#  33]
          +0.096*[#  34]+0.076*[#  19]+0.076*[#  20]+0.076*[#  22]+0.044*[#  18]
          +0.044*[#  21]+0.020*[#   6]+0.020*[#   7]+0.020*[#   9]+0.009*[#  11]
          +0.009*[#  12]+0.009*[#  13]+0.003*[#   5]+0.003*[#   8]+0.001*[#  27]
          +0.001*[#  31]+0.001*[#  10]
    |psi|^2 = 0.996
==== e(  19) =    11.87062 eV ==== 
     psi = 0.295*[#  19]+0.295*[#  20]+0.295*[#  22]+0.015*[#   5]+0.015*[#   8]
          +0.009*[#  28]+0.009*[#  29]+0.009*[#  30]+0.009*[#  32]+0.009*[#  33]
          +0.009*[#  34]+0.004*[#   6]+0.004*[#   7]+0.004*[#   9]+0.004*[#  18]
          +0.004*[#  21]+0.001*[#  24]+0.001*[#  25]+0.001*[#  26]
    |psi|^2 = 0.996
==== e(  20) =    12.33447 eV ==== 
     psi = 0.092*[#  19]+0.092*[#  20]+0.092*[#  22]+0.083*[#  28]+0.083*[#  29]
          +0.083*[#  30]+0.083*[#  32]+0.083*[#  33]+0.083*[#  34]+0.036*[#  10]
          +0.030*[#  27]+0.030*[#  31]+0.028*[#  23]+0.016*[#   6]+0.016*[#   7]
          +0.016*[#   9]+0.015*[#   5]+0.015*[#   8]+0.005*[#  24]+0.005*[#  25]
          +0.005*[#  26]+0.002*[#  14]+0.001*[#  18]+0.001*[#  21]
    |psi|^2 = 0.995
==== e(  21) =    12.73198 eV ==== 
     psi = 0.130*[#  28]+0.130*[#  29]+0.130*[#  30]+0.130*[#  32]+0.130*[#  33]
          +0.130*[#  34]+0.064*[#  18]+0.064*[#  21]+0.015*[#   6]+0.015*[#   7]
          +0.015*[#   9]+0.010*[#   5]+0.010*[#   8]+0.004*[#  19]+0.004*[#  20]
          +0.004*[#  22]+0.004*[#  11]+0.004*[#  12]+0.004*[#  13]
    |psi|^2 = 0.996
==== e(  22) =    13.55014 eV ==== 
     psi = 0.110*[#  28]+0.110*[#  29]+0.110*[#  30]+0.110*[#  32]+0.110*[#  33]
          +0.110*[#  34]+0.083*[#   5]+0.083*[#   8]+0.026*[#  19]+0.026*[#  20]
          +0.026*[#  22]+0.013*[#  24]+0.013*[#  25]+0.013*[#  26]+0.011*[#  27]
          +0.011*[#  31]+0.010*[#  18]+0.010*[#  21]+0.004*[#  23]+0.002*[#   6]
          +0.002*[#   7]+0.002*[#   9]
    |psi|^2 = 0.996
==== e(  23) =    14.24409 eV ==== 
     psi = 0.131*[#  28]+0.131*[#  29]+0.131*[#  30]+0.131*[#  32]+0.131*[#  33]
          +0.131*[#  34]+0.054*[#   5]+0.054*[#   8]+0.025*[#  19]+0.025*[#  20]
          +0.025*[#  22]+0.007*[#  18]+0.007*[#  21]+0.005*[#  24]+0.005*[#  25]
          +0.005*[#  26]
    |psi|^2 = 0.997
==== e(  24) =    17.28208 eV ==== 
     psi = 0.232*[#  19]+0.232*[#  20]+0.232*[#  22]+0.040*[#  10]+0.036*[#  27]
          +0.036*[#  31]+0.029*[#  23]+0.015*[#  24]+0.015*[#  25]+0.015*[#  26]
          +0.011*[#  28]+0.011*[#  29]+0.011*[#  30]+0.011*[#  32]+0.011*[#  33]
          +0.011*[#  34]+0.007*[#  11]+0.007*[#  12]+0.007*[#  13]+0.002*[#   6]
          +0.002*[#   7]+0.002*[#   9]+0.002*[#   1]+0.001*[#  14]
    |psi|^2 = 0.982
==== e(  25) =    18.86316 eV ==== 
     psi = 0.420*[#  18]+0.420*[#  21]+0.015*[#  28]+0.015*[#  29]+0.015*[#  30]
          +0.015*[#  32]+0.015*[#  33]+0.015*[#  34]+0.015*[#  27]+0.015*[#  31]
          +0.008*[#  11]+0.008*[#  12]+0.008*[#  13]+0.002*[#  19]+0.002*[#  20]
          +0.002*[#  22]+0.001*[#   5]+0.001*[#   8]
    |psi|^2 = 0.996
==== e(  26) =    18.94869 eV ==== 
     psi = 0.420*[#  18]+0.420*[#  21]+0.023*[#  28]+0.023*[#  29]+0.023*[#  30]
          +0.023*[#  32]+0.023*[#  33]+0.023*[#  34]+0.003*[#  11]+0.003*[#  12]
          +0.003*[#  13]+0.002*[#  19]+0.002*[#  20]+0.002*[#  22]+0.002*[#   5]
          +0.002*[#   8]
    |psi|^2 = 0.997
==== e(  27) =    19.46738 eV ==== 
     psi = 0.131*[#  10]+0.113*[#  27]+0.113*[#  31]+0.090*[#  23]+0.075*[#  19]
          +0.075*[#  20]+0.075*[#  22]+0.031*[#  11]+0.031*[#  12]+0.031*[#  13]
          +0.027*[#  28]+0.027*[#  29]+0.027*[#  30]+0.027*[#  32]+0.027*[#  33]
          +0.027*[#  34]+0.019*[#  24]+0.019*[#  25]+0.019*[#  26]+0.003*[#  14]
          +0.003*[#   1]
    |psi|^2 = 0.995
==== e(  28) =    23.51717 eV ==== 
     psi = 0.130*[#  23]+0.113*[#  10]+0.074*[#  27]+0.074*[#  31]+0.057*[#  11]
          +0.057*[#  12]+0.057*[#  13]+0.053*[#  24]+0.053*[#  25]+0.053*[#  26]
          +0.038*[#  28]+0.038*[#  29]+0.038*[#  30]+0.038*[#  32]+0.038*[#  33]
          +0.038*[#  34]+0.005*[#  18]+0.005*[#  21]+0.002*[#  19]+0.002*[#  20]
          +0.002*[#  22]
    |psi|^2 = 0.966
==== e(  29) =    24.83355 eV ==== 
     psi = 0.170*[#  23]+0.141*[#  10]+0.055*[#  24]+0.055*[#  25]+0.055*[#  26]
          +0.052*[#  11]+0.052*[#  12]+0.052*[#  13]+0.037*[#  27]+0.037*[#  31]
          +0.033*[#  28]+0.033*[#  29]+0.033*[#  30]+0.033*[#  32]+0.033*[#  33]
          +0.033*[#  34]+0.007*[#  19]+0.007*[#  20]+0.007*[#  22]+0.001*[#   1]
          +0.001*[#  18]+0.001*[#  21]+0.001*[#   6]+0.001*[#   7]+0.001*[#   9]
          
    |psi|^2 = 0.929
==== e(  30) =    29.78008 eV ==== 
     psi = 0.143*[#  11]+0.143*[#  12]+0.143*[#  13]+0.140*[#  10]+0.019*[#  24]
          +0.019*[#  25]+0.019*[#  26]+0.009*[#   1]+0.003*[#  28]+0.003*[#  29]
          +0.003*[#  30]+0.003*[#  32]+0.003*[#  33]+0.003*[#  34]+0.001*[#   6]
          +0.001*[#   7]+0.001*[#   9]
    |psi|^2 = 0.667
==== e(  31) =    30.18823 eV ==== 
     psi = 0.139*[#  24]+0.139*[#  25]+0.139*[#  26]+0.131*[#  23]+0.028*[#  11]
          +0.028*[#  12]+0.028*[#  13]+0.008*[#  14]+0.006*[#  10]+0.004*[#  19]
          +0.004*[#  20]+0.004*[#  22]+0.003*[#  28]+0.003*[#  29]+0.003*[#  30]
          +0.003*[#  32]+0.003*[#  33]+0.003*[#  34]
    |psi|^2 = 0.683
==== e(  32) =    32.19779 eV ==== 
     psi = 0.051*[#  11]+0.051*[#  12]+0.051*[#  13]+0.048*[#  24]+0.048*[#  25]
          +0.048*[#  26]+0.009*[#  10]+0.006*[#  23]+0.003*[#  19]+0.003*[#  20]
          +0.003*[#  22]+0.002*[#  28]+0.002*[#  29]+0.002*[#  30]+0.002*[#  32]
          +0.002*[#  33]+0.002*[#  34]+0.002*[#  27]+0.002*[#  31]+0.001*[#   1]
          
    |psi|^2 = 0.342
==== e(  33) =    33.11757 eV ==== 
     psi = 0.174*[#  11]+0.174*[#  12]+0.174*[#  13]+0.112*[#  24]+0.112*[#  25]
          +0.112*[#  26]+0.004*[#  28]+0.004*[#  29]+0.004*[#  30]+0.004*[#  32]
          +0.004*[#  33]+0.004*[#  34]+0.001*[#   2]+0.001*[#   3]+0.001*[#   4]
          
    |psi|^2 = 0.891
==== e(  34) =    34.64150 eV ==== 
     psi = 0.069*[#  24]+0.069*[#  25]+0.069*[#  26]+0.063*[#  11]+0.063*[#  12]
          +0.063*[#  13]+0.054*[#  23]+0.046*[#  10]+0.005*[#  28]+0.005*[#  29]
          +0.005*[#  30]+0.005*[#  32]+0.005*[#  33]+0.005*[#  34]+0.003*[#  14]
          +0.003*[#   1]+0.001*[#  27]+0.001*[#  31]
    |psi|^2 = 0.535
==== e(  35) =    35.03858 eV ==== 
     psi = 0.129*[#  24]+0.129*[#  25]+0.129*[#  26]+0.079*[#  11]+0.079*[#  12]
          +0.079*[#  13]+0.001*[#  18]+0.001*[#  21]+0.001*[#  28]+0.001*[#  29]
          +0.001*[#  30]+0.001*[#  32]+0.001*[#  33]+0.001*[#  34]+0.001*[#  15]
          +0.001*[#  16]+0.001*[#  17]+0.001*[#  19]+0.001*[#  20]+0.001*[#  22]
          
    |psi|^2 = 0.645
==== e(  36) =    36.68964 eV ==== 
     psi = 0.016*[#  24]+0.016*[#  25]+0.016*[#  26]+0.014*[#  11]+0.014*[#  12]
          +0.014*[#  13]+0.007*[#  27]+0.007*[#  31]+0.001*[#  28]+0.001*[#  29]
          +0.001*[#  30]+0.001*[#  32]+0.001*[#  33]+0.001*[#  34]
    |psi|^2 = 0.114
==== e(  37) =    37.44889 eV ==== 
     psi = 0.067*[#  23]+0.053*[#  10]+0.049*[#  24]+0.049*[#  25]+0.049*[#  26]
          +0.038*[#  11]+0.038*[#  12]+0.038*[#  13]+0.006*[#  14]+0.005*[#   1]
          +0.001*[#  27]
    |psi|^2 = 0.405
==== e(  38) =    39.13122 eV ==== 
     psi = 0.030*[#  24]+0.030*[#  25]+0.030*[#  26]+0.026*[#  11]+0.026*[#  12]
          +0.026*[#  13]
    |psi|^2 = 0.175
==== e(  39) =    42.18568 eV ==== 
     psi = 0.010*[#  24]+0.010*[#  25]+0.010*[#  26]+0.005*[#  11]+0.005*[#  12]
          +0.005*[#  13]
    |psi|^2 = 0.050
==== e(  40) =    42.23155 eV ==== 
     psi = 0.007*[#  11]+0.007*[#  12]+0.007*[#  13]+0.007*[#  24]+0.007*[#  25]
          +0.007*[#  26]+0.005*[#  27]+0.005*[#  31]+0.002*[#  10]+0.001*[#  23]
          
    |psi|^2 = 0.059

 k =   0.4387400170  0.0767147199 -0.2853105772
==== e(   1) =   -81.44447 eV ==== 
     psi = 0.963*[#   1]+0.009*[#  11]+0.009*[#  12]+0.009*[#  13]+0.003*[#  10]
          +0.001*[#  24]+0.001*[#  25]+0.001*[#  26]
    |psi|^2 = 1.000
==== e(   2) =   -77.90902 eV ==== 
     psi = 0.963*[#  14]+0.009*[#  24]+0.009*[#  25]+0.009*[#  26]+0.002*[#  23]
          +0.001*[#  11]+0.001*[#  12]+0.001*[#  13]
    |psi|^2 = 1.000
==== e(   3) =   -45.64267 eV ==== 
     psi = 0.332*[#   2]+0.332*[#   3]+0.332*[#   4]
    |psi|^2 = 1.000
==== e(   4) =   -44.44606 eV ==== 
     psi = 0.332*[#   2]+0.332*[#   3]+0.332*[#   4]+0.001*[#  10]
    |psi|^2 = 1.000
==== e(   5) =   -44.41514 eV ==== 
     psi = 0.331*[#   2]+0.331*[#   3]+0.331*[#   4]+0.001*[#  11]+0.001*[#  12]
          +0.001*[#  13]
    |psi|^2 = 1.000
==== e(   6) =   -41.66820 eV ==== 
     psi = 0.332*[#  15]+0.332*[#  16]+0.332*[#  17]
    |psi|^2 = 1.000
==== e(   7) =   -41.33788 eV ==== 
     psi = 0.332*[#  15]+0.332*[#  16]+0.332*[#  17]+0.001*[#  23]
    |psi|^2 = 1.000
==== e(   8) =   -41.30163 eV ==== 
     psi = 0.332*[#  15]+0.332*[#  16]+0.332*[#  17]+0.001*[#  24]+0.001*[#  25]
          +0.001*[#  26]
    |psi|^2 = 1.000
==== e(   9) =    -3.85579 eV ==== 
     psi = 0.324*[#  27]+0.324*[#  31]+0.046*[#  10]+0.046*[#  23]+0.040*[#  11]
          +0.040*[#  12]+0.040*[#  13]+0.039*[#  24]+0.039*[#  25]+0.039*[#  26]
          +0.004*[#  14]+0.004*[#   1]+0.003*[#   5]+0.003*[#   8]
    |psi|^2 = 1.000
==== e(  10) =    -3.36116 eV ==== 
     psi = 0.372*[#  27]+0.372*[#  31]+0.034*[#  11]+0.034*[#  12]+0.034*[#  13]
          +0.033*[#  24]+0.033*[#  25]+0.033*[#  26]+0.015*[#   5]+0.015*[#   8]
          +0.006*[#  18]+0.006*[#  21]+0.005*[#  10]+0.002*[#  23]
    |psi|^2 = 0.999
==== e(  11) =     7.18658 eV ==== 
     psi = 0.107*[#   6]+0.107*[#   7]+0.107*[#   9]+0.104*[#   5]+0.104*[#   8]
          +0.051*[#  28]+0.051*[#  29]+0.051*[#  30]+0.051*[#  32]+0.051*[#  33]
          +0.051*[#  34]+0.049*[#  23]+0.016*[#  24]+0.016*[#  25]+0.016*[#  26]
          +0.013*[#  10]+0.013*[#  11]+0.013*[#  12]+0.013*[#  13]+0.004*[#  19]
          +0.004*[#  20]+0.004*[#  22]+0.003*[#  14]+0.001*[#  27]+0.001*[#  31]
          
    |psi|^2 = 0.999
==== e(  12) =     7.76810 eV ==== 
     psi = 0.232*[#   5]+0.232*[#   8]+0.078*[#   6]+0.078*[#   7]+0.078*[#   9]
          +0.038*[#  28]+0.038*[#  29]+0.038*[#  30]+0.038*[#  32]+0.038*[#  33]
          +0.038*[#  34]+0.008*[#  11]+0.008*[#  12]+0.008*[#  13]+0.008*[#  24]
          +0.008*[#  25]+0.008*[#  26]+0.005*[#  19]+0.005*[#  20]+0.005*[#  22]
          +0.003*[#  18]+0.003*[#  21]+0.001*[#  27]+0.001*[#  31]
    |psi|^2 = 0.999
==== e(  13) =     8.15982 eV ==== 
     psi = 0.227*[#   5]+0.227*[#   8]+0.060*[#   6]+0.060*[#   7]+0.060*[#   9]
          +0.043*[#  28]+0.043*[#  29]+0.043*[#  30]+0.043*[#  32]+0.043*[#  33]
          +0.043*[#  34]+0.028*[#  10]+0.013*[#  11]+0.013*[#  12]+0.013*[#  13]
          +0.005*[#  27]+0.005*[#  31]+0.004*[#  19]+0.004*[#  20]+0.004*[#  22]
          +0.003*[#  24]+0.003*[#  25]+0.003*[#  26]+0.002*[#  18]+0.002*[#  21]
          +0.002*[#   1]+0.001*[#  23]
    |psi|^2 = 0.999
==== e(  14) =     8.74246 eV ==== 
     psi = 0.237*[#   6]+0.237*[#   7]+0.237*[#   9]+0.040*[#   5]+0.040*[#   8]
          +0.025*[#  28]+0.025*[#  29]+0.025*[#  30]+0.025*[#  32]+0.025*[#  33]
          +0.025*[#  34]+0.008*[#  11]+0.008*[#  12]+0.008*[#  13]+0.005*[#  27]
          +0.005*[#  31]+0.005*[#  18]+0.005*[#  21]+0.003*[#  24]+0.003*[#  25]
          +0.003*[#  26]+0.002*[#  19]+0.002*[#  20]+0.002*[#  22]
    |psi|^2 = 0.998
==== e(  15) =     8.87517 eV ==== 
     psi = 0.091*[#   6]+0.091*[#   7]+0.091*[#   9]+0.079*[#   5]+0.079*[#   8]
          +0.068*[#  10]+0.062*[#  28]+0.062*[#  29]+0.062*[#  30]+0.062*[#  32]
          +0.062*[#  33]+0.062*[#  34]+0.016*[#  19]+0.016*[#  20]+0.016*[#  22]
          +0.014*[#  27]+0.014*[#  31]+0.011*[#  18]+0.011*[#  21]+0.005*[#  24]
          +0.005*[#  25]+0.005*[#  26]+0.004*[#  11]+0.004*[#  12]+0.004*[#  13]
          +0.002*[#   1]+0.002*[#  23]
    |psi|^2 = 0.998
==== e(  16) =     9.98249 eV ==== 
     psi = 0.173*[#   6]+0.173*[#   7]+0.173*[#   9]+0.045*[#   5]+0.045*[#   8]
          +0.042*[#  28]+0.042*[#  29]+0.042*[#  30]+0.042*[#  32]+0.042*[#  33]
          +0.042*[#  34]+0.030*[#  23]+0.012*[#  24]+0.012*[#  25]+0.012*[#  26]
          +0.010*[#  19]+0.010*[#  20]+0.010*[#  22]+0.007*[#  11]+0.007*[#  12]
          +0.007*[#  13]+0.004*[#  10]+0.004*[#  27]+0.004*[#  31]+0.003*[#  18]
          +0.003*[#  21]+0.001*[#  14]
    |psi|^2 = 0.998
==== e(  17) =    10.08212 eV ==== 
     psi = 0.117*[#  19]+0.117*[#  20]+0.117*[#  22]+0.069*[#  28]+0.069*[#  29]
          +0.069*[#  30]+0.069*[#  32]+0.069*[#  33]+0.069*[#  34]+0.032*[#   6]
          +0.032*[#   7]+0.032*[#   9]+0.016*[#  24]+0.016*[#  25]+0.016*[#  26]
          +0.015*[#  11]+0.015*[#  12]+0.015*[#  13]+0.008*[#  18]+0.008*[#  21]
          +0.006*[#   5]+0.006*[#   8]+0.005*[#  27]+0.005*[#  31]+0.002*[#  23]
          
    |psi|^2 = 0.996
==== e(  18) =    10.92152 eV ==== 
     psi = 0.140*[#   6]+0.140*[#   7]+0.140*[#   9]+0.064*[#  19]+0.064*[#  20]
          +0.064*[#  22]+0.042*[#  28]+0.042*[#  29]+0.042*[#  30]+0.042*[#  32]
          +0.042*[#  33]+0.042*[#  34]+0.024*[#  23]+0.015*[#  27]+0.015*[#  31]
          +0.013*[#   5]+0.013*[#   8]+0.013*[#  10]+0.011*[#  18]+0.011*[#  21]
          +0.003*[#  24]+0.003*[#  25]+0.003*[#  26]+0.002*[#  11]+0.002*[#  12]
          +0.002*[#  13]+0.001*[#  14]
    |psi|^2 = 0.997
==== e(  19) =    11.86337 eV ==== 
     psi = 0.123*[#  19]+0.123*[#  20]+0.123*[#  22]+0.061*[#  28]+0.061*[#  29]
          +0.061*[#  30]+0.061*[#  32]+0.061*[#  33]+0.061*[#  34]+0.033*[#   5]
          +0.033*[#   8]+0.032*[#  18]+0.032*[#  21]+0.028*[#   6]+0.028*[#   7]
          +0.028*[#   9]+0.006*[#  24]+0.006*[#  25]+0.006*[#  26]+0.005*[#  11]
          +0.005*[#  12]+0.005*[#  13]+0.005*[#  23]+0.004*[#  27]+0.004*[#  31]
          
    |psi|^2 = 0.995
==== e(  20) =    12.41014 eV ==== 
     psi = 0.114*[#  28]+0.114*[#  29]+0.114*[#  30]+0.114*[#  32]+0.114*[#  33]
          +0.114*[#  34]+0.033*[#   5]+0.033*[#   8]+0.032*[#   6]+0.032*[#   7]
          +0.032*[#   9]+0.022*[#  18]+0.022*[#  21]+0.016*[#  19]+0.016*[#  20]
          +0.016*[#  22]+0.012*[#  23]+0.007*[#  11]+0.007*[#  12]+0.007*[#  13]
          +0.007*[#  24]+0.007*[#  25]+0.007*[#  26]+0.003*[#  27]+0.003*[#  31]
          +0.002*[#  10]
    |psi|^2 = 0.997
==== e(  21) =    12.78099 eV ==== 
     psi = 0.233*[#  19]+0.233*[#  20]+0.233*[#  22]+0.031*[#  28]+0.031*[#  29]
          +0.031*[#  30]+0.031*[#  32]+0.031*[#  33]+0.031*[#  34]+0.012*[#  23]
          +0.011*[#  27]+0.011*[#  31]+0.011*[#   6]+0.011*[#   7]+0.011*[#   9]
          +0.010*[#   5]+0.010*[#   8]+0.009*[#  10]+0.003*[#  24]+0.003*[#  25]
          +0.003*[#  26]+0.002*[#  11]+0.002*[#  12]+0.002*[#  13]
    |psi|^2 = 0.997
==== e(  22) =    13.25760 eV ==== 
     psi = 0.110*[#  28]+0.110*[#  29]+0.110*[#  30]+0.110*[#  32]+0.110*[#  33]
          +0.110*[#  34]+0.102*[#   5]+0.102*[#   8]+0.017*[#  18]+0.017*[#  21]
          +0.015*[#  23]+0.010*[#  19]+0.010*[#  20]+0.010*[#  22]+0.010*[#  24]
          +0.010*[#  25]+0.010*[#  26]+0.007*[#  27]+0.007*[#  31]+0.002*[#  11]
          +0.002*[#  12]+0.002*[#  13]+0.001*[#   6]+0.001*[#   7]+0.001*[#   9]
          +0.001*[#  10]
    |psi|^2 = 0.997
==== e(  23) =    13.84815 eV ==== 
     psi = 0.106*[#  28]+0.106*[#  29]+0.106*[#  30]+0.106*[#  32]+0.106*[#  33]
          +0.106*[#  34]+0.062*[#  19]+0.062*[#  20]+0.062*[#  22]+0.053*[#   5]
          +0.053*[#   8]+0.013*[#  18]+0.013*[#  21]+0.007*[#  27]+0.007*[#  31]
          +0.004*[#  10]+0.002*[#   6]+0.002*[#   7]+0.002*[#   9]+0.002*[#  11]
          +0.002*[#  12]+0.002*[#  13]+0.002*[#  24]+0.002*[#  25]+0.002*[#  26]
          +0.001*[#  23]
    |psi|^2 = 0.996
==== e(  24) =    17.80682 eV ==== 
     psi = 0.241*[#  19]+0.241*[#  20]+0.241*[#  22]+0.048*[#  18]+0.048*[#  21]
          +0.024*[#  10]+0.020*[#  27]+0.020*[#  31]+0.014*[#  24]+0.014*[#  25]
          +0.014*[#  26]+0.006*[#  23]+0.006*[#  28]+0.006*[#  29]+0.006*[#  30]
          +0.006*[#  32]+0.006*[#  33]+0.006*[#  34]+0.006*[#  11]+0.006*[#  12]
          +0.006*[#  13]
    |psi|^2 = 0.987
==== e(  25) =    18.82299 eV ==== 
     psi = 0.346*[#  18]+0.346*[#  21]+0.048*[#  19]+0.048*[#  20]+0.048*[#  22]
          +0.035*[#  10]+0.015*[#  28]+0.015*[#  29]+0.015*[#  30]+0.015*[#  32]
          +0.015*[#  33]+0.015*[#  34]+0.012*[#  27]+0.012*[#  31]+0.003*[#  11]
          +0.003*[#  12]+0.003*[#  13]+0.002*[#   5]+0.002*[#   8]
    |psi|^2 = 0.997
==== e(  26) =    19.07292 eV ==== 
     psi = 0.415*[#  18]+0.415*[#  21]+0.018*[#  28]+0.018*[#  29]+0.018*[#  30]
          +0.018*[#  32]+0.018*[#  33]+0.018*[#  34]+0.012*[#  27]+0.012*[#  31]
          +0.008*[#  11]+0.008*[#  12]+0.008*[#  13]+0.002*[#  19]+0.002*[#  20]
          +0.002*[#  22]
    |psi|^2 = 0.997
==== e(  27) =    21.20373 eV ==== 
     psi = 0.085*[#  27]+0.085*[#  31]+0.070*[#  10]+0.056*[#  23]+0.055*[#  11]
          +0.055*[#  12]+0.055*[#  13]+0.043*[#  28]+0.043*[#  29]+0.043*[#  30]
          +0.043*[#  32]+0.043*[#  33]+0.043*[#  34]+0.042*[#  18]+0.042*[#  21]
          +0.039*[#  24]+0.039*[#  25]+0.039*[#  26]+0.020*[#  19]+0.020*[#  20]
          +0.020*[#  22]+0.003*[#  14]+0.003*[#   1]+0.001*[#   5]+0.001*[#   8]
          
    |psi|^2 = 0.989
==== e(  28) =    23.65744 eV ==== 
     psi = 0.224*[#  23]+0.193*[#  10]+0.048*[#  28]+0.048*[#  29]+0.048*[#  30]
          +0.048*[#  32]+0.048*[#  33]+0.048*[#  34]+0.040*[#  24]+0.040*[#  25]
          +0.040*[#  26]+0.028*[#  11]+0.028*[#  12]+0.028*[#  13]+0.016*[#  27]
          +0.016*[#  31]+0.008*[#  19]+0.008*[#  20]+0.008*[#  22]+0.006*[#  18]
          +0.006*[#  21]
    |psi|^2 = 0.980
==== e(  29) =    26.43716 eV ==== 
     psi = 0.110*[#  11]+0.110*[#  12]+0.110*[#  13]+0.091*[#  24]+0.091*[#  25]
          +0.091*[#  26]+0.044*[#  27]+0.044*[#  31]+0.026*[#  28]+0.026*[#  29]
          +0.026*[#  30]+0.026*[#  32]+0.026*[#  33]+0.026*[#  34]+0.022*[#  23]
          +0.018*[#  10]+0.003*[#  19]+0.003*[#  20]+0.003*[#  22]+0.001*[#   6]
          +0.001*[#   7]+0.001*[#   9]+0.001*[#  18]+0.001*[#  21]
    |psi|^2 = 0.905
==== e(  30) =    27.99936 eV ==== 
     psi = 0.230*[#  10]+0.099*[#  11]+0.099*[#  12]+0.099*[#  13]+0.085*[#  23]
          +0.061*[#  24]+0.061*[#  25]+0.061*[#  26]+0.013*[#  28]+0.013*[#  29]
          +0.013*[#  30]+0.013*[#  32]+0.013*[#  33]+0.013*[#  34]+0.010*[#   1]
          +0.003*[#  19]+0.003*[#  20]+0.003*[#  22]+0.003*[#  14]
    |psi|^2 = 0.900
==== e(  31) =    28.48714 eV ==== 
     psi = 0.102*[#  11]+0.102*[#  12]+0.102*[#  13]+0.077*[#  24]+0.077*[#  25]
          +0.077*[#  26]+0.039*[#  23]+0.005*[#  28]+0.005*[#  29]+0.005*[#  30]
          +0.005*[#  32]+0.005*[#  33]+0.005*[#  34]+0.004*[#  19]+0.004*[#  20]
          +0.004*[#  22]+0.002*[#   6]+0.002*[#   7]+0.002*[#   9]+0.002*[#  10]
          +0.001*[#  14]+0.001*[#  18]+0.001*[#  21]
    |psi|^2 = 0.637
==== e(  32) =    30.04782 eV ==== 
     psi = 0.311*[#  23]+0.193*[#  10]+0.075*[#  24]+0.075*[#  25]+0.075*[#  26]
          +0.045*[#  11]+0.045*[#  12]+0.045*[#  13]+0.014*[#  14]+0.010*[#   1]
          +0.003*[#  27]+0.003*[#  28]+0.003*[#  29]+0.003*[#  30]+0.003*[#  31]
          +0.003*[#  32]+0.003*[#  33]+0.003*[#  34]+0.002*[#  18]+0.002*[#  21]
          
    |psi|^2 = 0.918
==== e(  33) =    31.33594 eV ==== 
     psi = 0.131*[#  11]+0.131*[#  12]+0.131*[#  13]+0.120*[#  24]+0.120*[#  25]
          +0.120*[#  26]+0.007*[#  28]+0.007*[#  29]+0.007*[#  30]+0.007*[#  32]
          +0.007*[#  33]+0.007*[#  34]+0.005*[#  23]+0.002*[#  27]+0.002*[#  31]
          +0.002*[#  10]+0.002*[#  19]+0.002*[#  20]+0.002*[#  22]+0.001*[#  18]
          +0.001*[#  21]
    |psi|^2 = 0.821
==== e(  34) =    31.57987 eV ==== 
     psi = 0.164*[#  24]+0.164*[#  25]+0.164*[#  26]+0.119*[#  11]+0.119*[#  12]
          +0.119*[#  13]+0.017*[#  27]+0.017*[#  31]+0.004*[#  28]+0.004*[#  29]
          +0.004*[#  30]+0.004*[#  32]+0.004*[#  33]+0.004*[#  34]+0.002*[#  23]
          +0.001*[#  19]+0.001*[#  20]+0.001*[#  22]
    |psi|^2 = 0.918
==== e(  35) =    35.03186 eV ==== 
     psi = 0.023*[#  24]+0.023*[#  25]+0.023*[#  26]+0.021*[#  11]+0.021*[#  12]
          +0.021*[#  13]+0.007*[#  23]+0.006*[#  10]+0.001*[#  19]+0.001*[#  20]
          +0.001*[#  22]
    |psi|^2 = 0.155
==== e(  36) =    37.12621 eV ==== 
     psi = 0.016*[#  24]+0.016*[#  25]+0.016*[#  26]+0.016*[#  11]+0.016*[#  12]
          +0.016*[#  13]+0.004*[#  23]+0.003*[#  28]+0.003*[#  29]+0.003*[#  30]
          +0.003*[#  32]+0.003*[#  33]+0.003*[#  34]+0.001*[#  10]
    |psi|^2 = 0.122
==== e(  37) =    38.55623 eV ==== 
     psi = 0.053*[#  24]+0.053*[#  25]+0.053*[#  26]+0.042*[#  11]+0.042*[#  12]
          +0.042*[#  13]+0.004*[#  28]+0.004*[#  29]+0.004*[#  30]+0.004*[#  32]
          +0.004*[#  33]+0.004*[#  34]+0.002*[#  23]+0.001*[#  10]
    |psi|^2 = 0.312
==== e(  38) =    38.91277 eV ==== 
     psi = 0.009*[#  24]+0.009*[#  25]+0.009*[#  26]+0.006*[#  11]+0.006*[#  12]
          +0.006*[#  13]+0.003*[#  27]+0.003*[#  31]+0.002*[#  28]+0.002*[#  29]
          +0.002*[#  30]+0.002*[#  32]+0.002*[#  33]+0.002*[#  34]+0.001*[#  10]
          +0.001*[#  23]
    |psi|^2 = 0.066
==== e(  39) =    41.28323 eV ==== 
     psi = 0.003*[#  23]+0.002*[#  10]+0.002*[#  24]+0.002*[#  25]+0.002*[#  26]
          +0.001*[#  11]+0.001*[#  12]+0.001*[#  13]
    |psi|^2 = 0.018
==== e(  40) =    44.90991 eV ==== 
     psi = 0.002*[#  11]+0.002*[#  12]+0.002*[#  13]
    |psi|^2 = 0.010

 k =  -0.8958688398  0.5522323486  0.1902070515
==== e(   1) =   -81.44160 eV ==== 
     psi = 0.983*[#   1]+0.005*[#  10]+0.002*[#  11]+0.002*[#  12]+0.002*[#  13]
          
    |psi|^2 = 1.000
==== e(   2) =   -77.90506 eV ==== 
     psi = 0.984*[#  14]+0.004*[#  23]+0.002*[#  24]+0.002*[#  25]+0.002*[#  26]
          
    |psi|^2 = 1.000
==== e(   3) =   -45.63842 eV ==== 
     psi = 0.332*[#   2]+0.332*[#   3]+0.332*[#   4]
    |psi|^2 = 1.000
==== e(   4) =   -44.47056 eV ==== 
     psi = 0.332*[#   2]+0.332*[#   3]+0.332*[#   4]
    |psi|^2 = 1.000
==== e(   5) =   -44.42987 eV ==== 
     psi = 0.332*[#   2]+0.332*[#   3]+0.332*[#   4]
    |psi|^2 = 1.000
==== e(   6) =   -41.66288 eV ==== 
     psi = 0.332*[#  15]+0.332*[#  16]+0.332*[#  17]
    |psi|^2 = 1.000
==== e(   7) =   -41.36657 eV ==== 
     psi = 0.331*[#  15]+0.331*[#  16]+0.331*[#  17]+0.001*[#  24]+0.001*[#  25]
          +0.001*[#  26]
    |psi|^2 = 1.000
==== e(   8) =   -41.31852 eV ==== 
     psi = 0.332*[#  15]+0.332*[#  16]+0.332*[#  17]
    |psi|^2 = 1.000
==== e(   9) =    -3.24972 eV ==== 
     psi = 0.382*[#  27]+0.382*[#  31]+0.036*[#  24]+0.036*[#  25]+0.036*[#  26]
          +0.022*[#   5]+0.022*[#   8]+0.017*[#  11]+0.017*[#  12]+0.017*[#  13]
          +0.012*[#  10]+0.011*[#  23]+0.003*[#  18]+0.003*[#  21]
    |psi|^2 = 0.999
==== e(  10) =    -3.03143 eV ==== 
     psi = 0.401*[#  27]+0.401*[#  31]+0.036*[#  11]+0.036*[#  12]+0.036*[#  13]
          +0.014*[#  24]+0.014*[#  25]+0.014*[#  26]+0.010*[#  18]+0.010*[#  21]
          +0.010*[#   5]+0.010*[#   8]+0.002*[#  10]+0.002*[#  23]
    |psi|^2 = 0.999
==== e(  11) =     7.11320 eV ==== 
     psi = 0.153*[#   5]+0.153*[#   8]+0.070*[#   6]+0.070*[#   7]+0.070*[#   9]
          +0.057*[#  28]+0.057*[#  29]+0.057*[#  30]+0.057*[#  32]+0.057*[#  33]
          +0.057*[#  34]+0.027*[#  24]+0.027*[#  25]+0.027*[#  26]+0.015*[#  23]
          +0.013*[#  10]+0.006*[#  19]+0.006*[#  20]+0.006*[#  22]+0.002*[#  11]
          +0.002*[#  12]+0.002*[#  13]+0.002*[#  27]+0.002*[#  31]+0.001*[#  14]
          
    |psi|^2 = 0.999
==== e(  12) =     7.55182 eV ==== 
     psi = 0.109*[#   6]+0.109*[#   7]+0.109*[#   9]+0.065*[#  28]+0.065*[#  29]
          +0.065*[#  30]+0.065*[#  32]+0.065*[#  33]+0.065*[#  34]+0.037*[#  10]
          +0.029*[#  23]+0.028*[#   5]+0.028*[#   8]+0.019*[#  11]+0.019*[#  12]
          +0.019*[#  13]+0.018*[#  19]+0.018*[#  20]+0.018*[#  22]+0.015*[#  24]
          +0.015*[#  25]+0.015*[#  26]
    |psi|^2 = 0.999
==== e(  13) =     7.89459 eV ==== 
     psi = 0.266*[#   5]+0.266*[#   8]+0.045*[#   6]+0.045*[#   7]+0.045*[#   9]
          +0.045*[#  28]+0.045*[#  29]+0.045*[#  30]+0.045*[#  32]+0.045*[#  33]
          +0.045*[#  34]+0.009*[#  23]+0.006*[#  24]+0.006*[#  25]+0.006*[#  26]
          +0.006*[#  11]+0.006*[#  12]+0.006*[#  13]+0.004*[#  27]+0.004*[#  31]
          +0.003*[#  10]+0.002*[#  19]+0.002*[#  20]+0.002*[#  22]
    |psi|^2 = 0.999
==== e(  14) =     8.30697 eV ==== 
     psi = 0.209*[#   6]+0.209*[#   7]+0.209*[#   9]+0.055*[#   5]+0.055*[#   8]
          +0.025*[#  28]+0.025*[#  29]+0.025*[#  30]+0.025*[#  32]+0.025*[#  33]
          +0.025*[#  34]+0.015*[#  19]+0.015*[#  20]+0.015*[#  22]+0.012*[#  11]
          +0.012*[#  12]+0.012*[#  13]+0.007*[#  18]+0.007*[#  21]+0.003*[#  27]
          +0.003*[#  31]+0.002*[#  24]+0.002*[#  25]+0.002*[#  26]+0.001*[#  23]
          
    |psi|^2 = 0.997
==== e(  15) =     8.82749 eV ==== 
     psi = 0.132*[#   5]+0.132*[#   8]+0.069*[#  28]+0.069*[#  29]+0.069*[#  30]
          +0.069*[#  32]+0.069*[#  33]+0.069*[#  34]+0.026*[#  19]+0.026*[#  20]
          +0.026*[#  22]+0.024*[#   6]+0.024*[#   7]+0.024*[#   9]+0.024*[#  11]
          +0.024*[#  12]+0.024*[#  13]+0.020*[#  18]+0.020*[#  21]+0.020*[#  10]
          +0.013*[#  27]+0.013*[#  31]+0.006*[#  23]
    |psi|^2 = 0.998
==== e(  16) =     9.20249 eV ==== 
     psi = 0.108*[#   6]+0.108*[#   7]+0.108*[#   9]+0.058*[#  28]+0.058*[#  29]
          +0.058*[#  30]+0.058*[#  32]+0.058*[#  33]+0.058*[#  34]+0.054*[#  19]
          +0.054*[#  20]+0.054*[#  22]+0.022*[#  11]+0.022*[#  12]+0.022*[#  13]
          +0.016*[#  24]+0.016*[#  25]+0.016*[#  26]+0.010*[#   5]+0.010*[#   8]
          +0.006*[#  23]+0.006*[#  10]+0.005*[#  18]+0.005*[#  21]+0.003*[#  27]
          +0.003*[#  31]
    |psi|^2 = 0.998
==== e(  17) =    10.53752 eV ==== 
     psi = 0.083*[#   6]+0.083*[#   7]+0.083*[#   9]+0.074*[#  19]+0.074*[#  20]
          +0.074*[#  22]+0.065*[#  28]+0.065*[#  29]+0.065*[#  30]+0.065*[#  32]
          +0.065*[#  33]+0.065*[#  34]+0.022*[#  18]+0.022*[#  21]+0.014*[#  24]
          +0.014*[#  25]+0.014*[#  26]+0.010*[#  10]+0.008*[#  11]+0.008*[#  12]
          +0.008*[#  13]+0.004*[#   5]+0.004*[#   8]+0.004*[#  23]+0.003*[#  27]
          +0.003*[#  31]
    |psi|^2 = 0.998
==== e(  18) =    10.90565 eV ==== 
     psi = 0.211*[#   6]+0.211*[#   7]+0.211*[#   9]+0.037*[#  28]+0.037*[#  29]
          +0.037*[#  30]+0.037*[#  32]+0.037*[#  33]+0.037*[#  34]+0.032*[#   5]
          +0.032*[#   8]+0.013*[#  18]+0.013*[#  21]+0.010*[#  11]+0.010*[#  12]
[...]
          +0.088*[#  34]+0.075*[#   6]+0.075*[#   7]+0.075*[#   9]+0.030*[#  19]
          +0.030*[#  20]+0.030*[#  22]+0.023*[#   5]+0.023*[#   8]+0.018*[#  24]
          +0.018*[#  25]+0.018*[#  26]+0.014*[#  18]+0.014*[#  21]+0.009*[#  27]
          +0.009*[#  31]+0.005*[#  10]
    |psi|^2 = 0.996
==== e(  18) =    10.96163 eV ==== 
     psi = 0.160*[#   6]+0.160*[#   7]+0.160*[#   9]+0.053*[#  19]+0.053*[#  20]
          +0.053*[#  22]+0.043*[#  28]+0.043*[#  29]+0.043*[#  30]+0.043*[#  32]
          +0.043*[#  33]+0.043*[#  34]+0.019*[#   5]+0.019*[#   8]+0.009*[#  24]
          +0.009*[#  25]+0.009*[#  26]+0.009*[#  18]+0.009*[#  21]+0.005*[#  11]
          +0.005*[#  12]+0.005*[#  13]+0.002*[#  23]
    |psi|^2 = 0.996
==== e(  19) =    11.20091 eV ==== 
     psi = 0.112*[#  18]+0.112*[#  21]+0.076*[#  28]+0.076*[#  29]+0.076*[#  30]
          +0.076*[#  32]+0.076*[#  33]+0.076*[#  34]+0.069*[#  10]+0.026*[#   6]
          +0.026*[#   7]+0.026*[#   9]+0.021*[#  27]+0.021*[#  31]+0.016*[#  19]
          +0.016*[#  20]+0.016*[#  22]+0.014*[#  11]+0.014*[#  12]+0.014*[#  13]
          +0.008*[#   5]+0.008*[#   8]+0.006*[#  24]+0.006*[#  25]+0.006*[#  26]
          +0.002*[#   1]
    |psi|^2 = 0.997
==== e(  20) =    12.70312 eV ==== 
     psi = 0.094*[#  28]+0.094*[#  29]+0.094*[#  30]+0.094*[#  32]+0.094*[#  33]
          +0.094*[#  34]+0.069*[#   6]+0.069*[#   7]+0.069*[#   9]+0.031*[#  19]
          +0.031*[#  20]+0.031*[#  22]+0.031*[#  18]+0.031*[#  21]+0.016*[#  11]
          +0.016*[#  12]+0.016*[#  13]+0.005*[#  27]+0.005*[#  31]+0.004*[#  23]
          +0.001*[#  24]+0.001*[#  25]+0.001*[#  26]
    |psi|^2 = 0.996
==== e(  21) =    12.74164 eV ==== 
     psi = 0.112*[#   6]+0.112*[#   7]+0.112*[#   9]+0.078*[#  28]+0.078*[#  29]
          +0.078*[#  30]+0.078*[#  32]+0.078*[#  33]+0.078*[#  34]+0.031*[#  19]
          +0.031*[#  20]+0.031*[#  22]+0.018*[#   5]+0.018*[#   8]+0.011*[#  18]
          +0.011*[#  21]+0.008*[#  10]+0.006*[#  24]+0.006*[#  25]+0.006*[#  26]
          +0.005*[#  11]+0.005*[#  12]+0.005*[#  13]
    |psi|^2 = 0.998
==== e(  22) =    13.00927 eV ==== 
     psi = 0.127*[#   6]+0.127*[#   7]+0.127*[#   9]+0.065*[#  18]+0.065*[#  21]
          +0.062*[#  28]+0.062*[#  29]+0.062*[#  30]+0.062*[#  32]+0.062*[#  33]
          +0.062*[#  34]+0.019*[#  27]+0.019*[#  31]+0.012*[#   5]+0.012*[#   8]
          +0.011*[#  11]+0.011*[#  12]+0.011*[#  13]+0.004*[#  10]+0.002*[#  24]
          +0.002*[#  25]+0.002*[#  26]+0.001*[#   1]
    |psi|^2 = 0.996
==== e(  23) =    13.75568 eV ==== 
     psi = 0.112*[#  28]+0.112*[#  29]+0.112*[#  30]+0.112*[#  32]+0.112*[#  33]
          +0.112*[#  34]+0.063*[#  18]+0.063*[#  21]+0.045*[#   6]+0.045*[#   7]
          +0.045*[#   9]+0.023*[#  23]+0.011*[#   5]+0.011*[#   8]+0.005*[#  11]
          +0.005*[#  12]+0.005*[#  13]+0.001*[#  19]+0.001*[#  20]+0.001*[#  22]
          
    |psi|^2 = 0.996
==== e(  24) =    18.10961 eV ==== 
     psi = 0.280*[#   6]+0.280*[#   7]+0.280*[#   9]+0.016*[#  28]+0.016*[#  29]
          +0.016*[#  30]+0.016*[#  32]+0.016*[#  33]+0.016*[#  34]+0.009*[#   5]
          +0.009*[#   8]+0.006*[#  11]+0.006*[#  12]+0.006*[#  13]+0.005*[#  10]
          +0.002*[#  27]+0.002*[#  31]+0.001*[#  18]+0.001*[#  21]
    |psi|^2 = 0.990
==== e(  25) =    18.45002 eV ==== 
     psi = 0.374*[#   5]+0.374*[#   8]+0.054*[#  23]+0.044*[#  27]+0.044*[#  31]
          +0.021*[#  24]+0.021*[#  25]+0.021*[#  26]+0.005*[#  28]+0.005*[#  29]
          +0.005*[#  30]+0.005*[#  32]+0.005*[#  33]+0.005*[#  34]+0.002*[#  11]
          +0.002*[#  12]+0.002*[#  13]
    |psi|^2 = 0.995
==== e(  26) =    18.99718 eV ==== 
     psi = 0.422*[#   5]+0.422*[#   8]+0.016*[#  28]+0.016*[#  29]+0.016*[#  30]
          +0.016*[#  32]+0.016*[#  33]+0.016*[#  34]+0.011*[#   6]+0.011*[#   7]
          +0.011*[#   9]+0.006*[#  27]+0.006*[#  31]+0.005*[#  24]+0.005*[#  25]
          +0.005*[#  26]
    |psi|^2 = 0.997
==== e(  27) =    22.34387 eV ==== 
     psi = 0.225*[#  23]+0.065*[#  24]+0.065*[#  25]+0.065*[#  26]+0.064*[#   5]
          +0.064*[#   8]+0.052*[#  28]+0.052*[#  29]+0.052*[#  30]+0.052*[#  32]
          +0.052*[#  33]+0.052*[#  34]+0.044*[#  27]+0.044*[#  31]+0.011*[#  11]
          +0.011*[#  12]+0.011*[#  13]+0.001*[#  19]+0.001*[#  20]+0.001*[#  22]
          
    |psi|^2 = 0.989
==== e(  28) =    22.46477 eV ==== 
     psi = 0.247*[#  10]+0.075*[#  11]+0.075*[#  12]+0.075*[#  13]+0.065*[#  27]
          +0.065*[#  31]+0.044*[#  28]+0.044*[#  29]+0.044*[#  30]+0.044*[#  32]
          +0.044*[#  33]+0.044*[#  34]+0.019*[#   6]+0.019*[#   7]+0.019*[#   9]
          +0.015*[#  24]+0.015*[#  25]+0.015*[#  26]+0.004*[#  18]+0.004*[#  21]
          +0.004*[#   5]+0.004*[#   8]+0.002*[#   1]
    |psi|^2 = 0.986
==== e(  29) =    27.66434 eV ==== 
     psi = 0.223*[#  24]+0.223*[#  25]+0.223*[#  26]+0.037*[#  10]+0.014*[#  28]
          +0.014*[#  29]+0.014*[#  30]+0.014*[#  32]+0.014*[#  33]+0.014*[#  34]
          +0.011*[#  27]+0.011*[#  31]+0.004*[#   6]+0.004*[#   7]+0.004*[#   9]
          +0.003*[#   1]+0.002*[#  19]+0.002*[#  20]+0.002*[#  22]+0.001*[#  11]
          +0.001*[#  12]+0.001*[#  13]
    |psi|^2 = 0.842
==== e(  30) =    27.85640 eV ==== 
     psi = 0.192*[#  11]+0.192*[#  12]+0.192*[#  13]+0.018*[#  24]+0.018*[#  25]
          +0.018*[#  26]+0.015*[#  28]+0.015*[#  29]+0.015*[#  30]+0.015*[#  32]
          +0.015*[#  33]+0.015*[#  34]+0.008*[#  27]+0.008*[#  31]+0.005*[#   6]
          +0.005*[#   7]+0.005*[#   9]+0.003*[#  23]
    |psi|^2 = 0.762
==== e(  31) =    28.25522 eV ==== 
     psi = 0.491*[#  23]+0.089*[#  24]+0.089*[#  25]+0.089*[#  26]+0.029*[#  11]
          +0.029*[#  12]+0.029*[#  13]+0.024*[#  14]+0.009*[#  27]+0.009*[#  31]
          +0.006*[#  28]+0.006*[#  29]+0.006*[#  30]+0.006*[#  32]+0.006*[#  33]
          +0.006*[#  34]
    |psi|^2 = 0.927
==== e(  32) =    28.67731 eV ==== 
     psi = 0.463*[#  10]+0.080*[#  11]+0.080*[#  12]+0.080*[#  13]+0.018*[#   1]
          +0.013*[#  24]+0.013*[#  25]+0.013*[#  26]+0.007*[#  28]+0.007*[#  29]
          +0.007*[#  30]+0.007*[#  32]+0.007*[#  33]+0.007*[#  34]+0.004*[#  27]
          +0.004*[#  31]+0.002*[#   6]+0.002*[#   7]+0.002*[#   9]
    |psi|^2 = 0.823
==== e(  33) =    31.43719 eV ==== 
     psi = 0.214*[#  24]+0.214*[#  25]+0.214*[#  26]+0.054*[#  11]+0.054*[#  12]
          +0.054*[#  13]+0.010*[#  10]+0.008*[#  28]+0.008*[#  29]+0.008*[#  30]
          +0.008*[#  32]+0.008*[#  33]+0.008*[#  34]+0.005*[#  27]+0.005*[#  31]
          +0.002*[#   6]+0.002*[#   7]+0.002*[#   9]+0.001*[#   5]+0.001*[#   8]
          +0.001*[#  15]+0.001*[#  16]+0.001*[#  17]
    |psi|^2 = 0.884
==== e(  34) =    31.73474 eV ==== 
     psi = 0.218*[#  11]+0.218*[#  12]+0.218*[#  13]+0.035*[#  24]+0.035*[#  25]
          +0.035*[#  26]+0.007*[#  28]+0.007*[#  29]+0.007*[#  30]+0.007*[#  32]
          +0.007*[#  33]+0.007*[#  34]+0.006*[#  27]+0.006*[#  31]+0.002*[#   6]
          +0.002*[#   7]+0.002*[#   9]
    |psi|^2 = 0.824
==== e(  35) =    35.96312 eV ==== 
     psi = 0.064*[#  24]+0.064*[#  25]+0.064*[#  26]+0.021*[#  10]+0.009*[#  11]
          +0.009*[#  12]+0.009*[#  13]+0.003*[#  28]+0.003*[#  29]+0.003*[#  30]
          +0.003*[#  32]+0.003*[#  33]+0.003*[#  34]
    |psi|^2 = 0.267
==== e(  36) =    36.02634 eV ==== 
     psi = 0.072*[#  11]+0.072*[#  12]+0.072*[#  13]+0.013*[#  23]+0.007*[#  24]
          +0.007*[#  25]+0.007*[#  26]+0.003*[#  28]+0.003*[#  29]+0.003*[#  30]
          +0.003*[#  32]+0.003*[#  33]+0.003*[#  34]
    |psi|^2 = 0.274
==== e(  37) =    40.69716 eV ==== 
     psi = 0.017*[#  24]+0.017*[#  25]+0.017*[#  26]+0.007*[#  10]+0.003*[#  27]
          +0.003*[#  31]
    |psi|^2 = 0.072
==== e(  38) =    40.82020 eV ==== 
     psi = 0.021*[#  11]+0.021*[#  12]+0.021*[#  13]+0.007*[#  23]+0.003*[#  27]
          +0.003*[#  31]
    |psi|^2 = 0.082
==== e(  39) =    41.89075 eV ==== 
     psi = 0.005*[#  11]+0.005*[#  12]+0.005*[#  13]
    |psi|^2 = 0.020
==== e(  40) =    42.05284 eV ==== 
     psi = 0.004*[#  24]+0.004*[#  25]+0.004*[#  26]
    |psi|^2 = 0.018

 k =  -0.2301441596 -0.2301441596 -0.2301441596
==== e(   1) =   -81.44986 eV ==== 
     psi = 0.963*[#  14]+0.010*[#  11]+0.010*[#  12]+0.010*[#  13]
    |psi|^2 = 1.000
==== e(   2) =   -77.91500 eV ==== 
     psi = 0.962*[#   1]+0.010*[#  24]+0.010*[#  25]+0.010*[#  26]
    |psi|^2 = 1.000
==== e(   3) =   -45.64949 eV ==== 
     psi = 0.332*[#  15]+0.332*[#  16]+0.332*[#  17]
    |psi|^2 = 1.000
==== e(   4) =   -44.39847 eV ==== 
     psi = 0.330*[#  15]+0.330*[#  16]+0.330*[#  17]+0.003*[#  24]+0.003*[#  25]
          +0.003*[#  26]
    |psi|^2 = 1.000
==== e(   5) =   -44.39847 eV ==== 
     psi = 0.330*[#  15]+0.330*[#  16]+0.330*[#  17]+0.003*[#  24]+0.003*[#  25]
          +0.003*[#  26]
    |psi|^2 = 1.000
==== e(   6) =   -41.67738 eV ==== 
     psi = 0.332*[#   2]+0.332*[#   3]+0.332*[#   4]
    |psi|^2 = 1.000
==== e(   7) =   -41.28238 eV ==== 
     psi = 0.330*[#   2]+0.330*[#   3]+0.330*[#   4]+0.003*[#  11]+0.003*[#  12]
          +0.003*[#  13]
    |psi|^2 = 1.000
==== e(   8) =   -41.28238 eV ==== 
     psi = 0.330*[#   2]+0.330*[#   3]+0.330*[#   4]+0.003*[#  11]+0.003*[#  12]
          +0.003*[#  13]
    |psi|^2 = 1.000
==== e(   9) =    -4.32328 eV ==== 
     psi = 0.295*[#  27]+0.295*[#  31]+0.121*[#  23]+0.091*[#  11]+0.091*[#  12]
          +0.091*[#  13]+0.009*[#  14]
    |psi|^2 = 1.000
==== e(  10) =    -4.29804 eV ==== 
     psi = 0.297*[#  27]+0.297*[#  31]+0.116*[#  10]+0.092*[#  24]+0.092*[#  25]
          +0.092*[#  26]+0.010*[#   1]
    |psi|^2 = 1.000
==== e(  11) =     6.82026 eV ==== 
     psi = 0.218*[#  19]+0.218*[#  20]+0.218*[#  22]+0.114*[#  23]+0.035*[#  28]
          +0.035*[#  29]+0.035*[#  30]+0.035*[#  32]+0.035*[#  33]+0.035*[#  34]
          +0.008*[#  27]+0.008*[#  31]+0.001*[#  14]+0.001*[#  11]+0.001*[#  12]
          +0.001*[#  13]
    |psi|^2 = 0.999
==== e(  12) =     8.31357 eV ==== 
     psi = 0.407*[#  18]+0.407*[#  21]+0.022*[#  28]+0.022*[#  29]+0.022*[#  30]
          +0.022*[#  32]+0.022*[#  33]+0.022*[#  34]+0.017*[#  19]+0.017*[#  20]
          +0.017*[#  22]
    |psi|^2 = 0.999
==== e(  13) =     8.31357 eV ==== 
     psi = 0.407*[#  18]+0.407*[#  21]+0.022*[#  28]+0.022*[#  29]+0.022*[#  30]
          +0.022*[#  32]+0.022*[#  33]+0.022*[#  34]+0.017*[#  19]+0.017*[#  20]
          +0.017*[#  22]
    |psi|^2 = 0.999
==== e(  14) =     8.85381 eV ==== 
     psi = 0.236*[#  10]+0.110*[#  28]+0.110*[#  29]+0.110*[#  30]+0.110*[#  32]
          +0.110*[#  33]+0.110*[#  34]+0.023*[#  27]+0.023*[#  31]+0.016*[#   6]
          +0.016*[#   7]+0.016*[#   9]+0.004*[#   1]+0.002*[#  24]+0.002*[#  25]
          +0.002*[#  26]
    |psi|^2 = 0.998
==== e(  15) =     9.66964 eV ==== 
     psi = 0.312*[#  19]+0.312*[#  20]+0.312*[#  22]+0.031*[#  18]+0.031*[#  21]
          
    |psi|^2 = 0.999
==== e(  16) =     9.66964 eV ==== 
     psi = 0.312*[#  19]+0.312*[#  20]+0.312*[#  22]+0.031*[#  18]+0.031*[#  21]
          
    |psi|^2 = 0.999
==== e(  17) =    10.42378 eV ==== 
     psi = 0.121*[#  23]+0.113*[#  19]+0.113*[#  20]+0.113*[#  22]+0.082*[#  28]
          +0.082*[#  29]+0.082*[#  30]+0.082*[#  32]+0.082*[#  33]+0.082*[#  34]
          +0.020*[#  27]+0.020*[#  31]+0.003*[#  14]
    |psi|^2 = 0.998
==== e(  18) =    11.59967 eV ==== 
     psi = 0.281*[#   6]+0.281*[#   7]+0.281*[#   9]+0.024*[#  28]+0.024*[#  29]
          +0.024*[#  30]+0.024*[#  32]+0.024*[#  33]+0.024*[#  34]+0.003*[#   5]
          +0.003*[#   8]
    |psi|^2 = 0.994
==== e(  19) =    11.59967 eV ==== 
     psi = 0.281*[#   6]+0.281*[#   7]+0.281*[#   9]+0.024*[#  28]+0.024*[#  29]
          +0.024*[#  30]+0.024*[#  32]+0.024*[#  33]+0.024*[#  34]+0.003*[#   5]
          +0.003*[#   8]
    |psi|^2 = 0.994
==== e(  20) =    12.85271 eV ==== 
     psi = 0.116*[#  28]+0.116*[#  29]+0.116*[#  30]+0.116*[#  32]+0.116*[#  33]
          +0.116*[#  34]+0.075*[#   5]+0.075*[#   8]+0.048*[#   6]+0.048*[#   7]
          +0.048*[#   9]
    |psi|^2 = 0.997
==== e(  21) =    12.85272 eV ==== 
     psi = 0.116*[#  28]+0.116*[#  29]+0.116*[#  30]+0.116*[#  32]+0.116*[#  33]
          +0.116*[#  34]+0.075*[#   5]+0.075*[#   8]+0.048*[#   6]+0.048*[#   7]
          +0.048*[#   9]
    |psi|^2 = 0.997
==== e(  22) =    14.38997 eV ==== 
     psi = 0.142*[#  28]+0.142*[#  29]+0.142*[#  30]+0.142*[#  32]+0.142*[#  33]
          +0.142*[#  34]+0.062*[#  18]+0.062*[#  21]+0.004*[#  19]+0.004*[#  20]
          +0.004*[#  22]+0.003*[#  11]+0.003*[#  12]+0.003*[#  13]
    |psi|^2 = 0.996
==== e(  23) =    14.38998 eV ==== 
     psi = 0.142*[#  28]+0.142*[#  29]+0.142*[#  30]+0.142*[#  32]+0.142*[#  33]
          +0.142*[#  34]+0.062*[#  18]+0.062*[#  21]+0.004*[#  19]+0.004*[#  20]
          +0.004*[#  22]+0.003*[#  11]+0.003*[#  12]+0.003*[#  13]
    |psi|^2 = 0.996
==== e(  24) =    17.54922 eV ==== 
     psi = 0.290*[#   6]+0.290*[#   7]+0.290*[#   9]+0.017*[#  28]+0.017*[#  29]
          +0.017*[#  30]+0.017*[#  32]+0.017*[#  33]+0.017*[#  34]+0.013*[#  10]
          
    |psi|^2 = 0.986
==== e(  25) =    18.85073 eV ==== 
     psi = 0.419*[#   5]+0.419*[#   8]+0.024*[#  28]+0.024*[#  29]+0.024*[#  30]
          +0.024*[#  32]+0.024*[#  33]+0.024*[#  34]+0.002*[#   6]+0.002*[#   7]
          +0.002*[#   9]+0.002*[#  24]+0.002*[#  25]+0.002*[#  26]
    |psi|^2 = 0.996
==== e(  26) =    18.85073 eV ==== 
     psi = 0.419*[#   5]+0.419*[#   8]+0.024*[#  28]+0.024*[#  29]+0.024*[#  30]
          +0.024*[#  32]+0.024*[#  33]+0.024*[#  34]+0.002*[#   6]+0.002*[#   7]
          +0.002*[#   9]+0.002*[#  24]+0.002*[#  25]+0.002*[#  26]
    |psi|^2 = 0.996
==== e(  27) =    19.99258 eV ==== 
     psi = 0.295*[#  23]+0.146*[#  27]+0.146*[#  31]+0.070*[#  11]+0.070*[#  12]
          +0.070*[#  13]+0.032*[#  28]+0.032*[#  29]+0.032*[#  30]+0.032*[#  32]
          +0.032*[#  33]+0.032*[#  34]+0.004*[#  14]
    |psi|^2 = 0.992
==== e(  28) =    20.29667 eV ==== 
     psi = 0.251*[#  10]+0.157*[#  27]+0.157*[#  31]+0.086*[#  24]+0.086*[#  25]
          +0.086*[#  26]+0.022*[#  28]+0.022*[#  29]+0.022*[#  30]+0.022*[#  32]
          +0.022*[#  33]+0.022*[#  34]+0.008*[#   6]+0.008*[#   7]+0.008*[#   9]
          +0.006*[#   1]
    |psi|^2 = 0.990
==== e(  29) =    26.64554 eV ==== 
     psi = 0.286*[#  23]+0.126*[#  11]+0.126*[#  12]+0.126*[#  13]+0.021*[#  27]
          +0.021*[#  31]+0.015*[#  14]+0.013*[#  28]+0.013*[#  29]+0.013*[#  30]
          +0.013*[#  32]+0.013*[#  33]+0.013*[#  34]+0.002*[#  19]+0.002*[#  20]
          +0.002*[#  22]
    |psi|^2 = 0.806
==== e(  30) =    27.08573 eV ==== 
     psi = 0.325*[#  10]+0.115*[#  24]+0.115*[#  25]+0.115*[#  26]+0.018*[#   6]
          +0.018*[#   7]+0.018*[#   9]+0.015*[#  27]+0.015*[#  31]+0.014*[#   1]
          +0.013*[#  28]+0.013*[#  29]+0.013*[#  30]+0.013*[#  32]+0.013*[#  33]
          +0.013*[#  34]
    |psi|^2 = 0.845
==== e(  31) =    34.26725 eV ==== 
     psi = 0.234*[#  24]+0.234*[#  25]+0.234*[#  26]+0.002*[#  15]+0.002*[#  16]
          +0.002*[#  17]+0.001*[#   5]+0.001*[#   8]
    |psi|^2 = 0.720
==== e(  32) =    34.26725 eV ==== 
     psi = 0.234*[#  24]+0.234*[#  25]+0.234*[#  26]+0.002*[#  15]+0.002*[#  16]
          +0.002*[#  17]+0.001*[#   5]+0.001*[#   8]
    |psi|^2 = 0.720
==== e(  33) =    34.45172 eV ==== 
     psi = 0.214*[#  11]+0.214*[#  12]+0.214*[#  13]+0.002*[#   2]+0.002*[#   3]
          +0.002*[#   4]
    |psi|^2 = 0.652
==== e(  34) =    34.45172 eV ==== 
     psi = 0.214*[#  11]+0.214*[#  12]+0.214*[#  13]+0.002*[#   2]+0.002*[#   3]
          +0.002*[#   4]
    |psi|^2 = 0.652
==== e(  35) =    37.28916 eV ==== 
     psi = 0.025*[#  10]+0.010*[#  24]+0.010*[#  25]+0.010*[#  26]+0.002*[#  27]
          +0.002*[#  31]+0.001*[#   1]+0.001*[#  28]+0.001*[#  29]+0.001*[#  30]
          +0.001*[#  32]+0.001*[#  33]+0.001*[#  34]
    |psi|^2 = 0.067
==== e(  36) =    37.51497 eV ==== 
     psi = 0.024*[#  23]+0.013*[#  11]+0.013*[#  12]+0.013*[#  13]+0.003*[#  27]
          +0.003*[#  31]+0.002*[#  14]+0.001*[#  28]+0.001*[#  29]+0.001*[#  30]
          +0.001*[#  32]+0.001*[#  33]+0.001*[#  34]
    |psi|^2 = 0.076
==== e(  37) =    39.55544 eV ==== 
     psi = 0.049*[#  11]+0.049*[#  12]+0.049*[#  13]
    |psi|^2 = 0.148
==== e(  38) =    39.55544 eV ==== 
     psi = 0.049*[#  11]+0.049*[#  12]+0.049*[#  13]
    |psi|^2 = 0.148
==== e(  39) =    39.83495 eV ==== 
     psi = 0.042*[#  24]+0.042*[#  25]+0.042*[#  26]+0.001*[#   5]+0.001*[#   8]
          +0.001*[#   6]+0.001*[#   7]+0.001*[#   9]
    |psi|^2 = 0.133
==== e(  40) =    39.83495 eV ==== 
     psi = 0.042*[#  24]+0.042*[#  25]+0.042*[#  26]+0.001*[#   5]+0.001*[#   8]
          +0.001*[#   6]+0.001*[#   7]+0.001*[#   9]
    |psi|^2 = 0.133

Lowdin Charges: 

     Atom #   1: total charge =  16.5723, s =  2.3430, p =  6.9914, d =  7.2379, 
                 spin up      =   9.6263, s =  1.1726, 
                 spin up      =   9.6263, p =  3.4898, pz=  1.1633, px=  1.1633, py=  1.1633, 
                 spin up      =   9.6263, d =  4.9639, dz2=  0.9927, dxz=  0.9928, dyz=  0.9928, dx2-y2=  0.9927, dxy=  0.9928, 
                 spin down    =   6.9460, s =  1.1704, 
                 spin down    =   6.9460, p =  3.5016, pz=  1.1672, px=  1.1672, py=  1.1672, 
                 spin down    =   6.9460, d =  2.2740, dz2=  0.1400, dxz=  0.6647, dyz=  0.6647, dx2-y2=  0.1400, dxy=  0.6647, 
                 polarization =   2.6803, s =  0.0022, p = -0.0118, d =  2.6899, 
     Atom #   2: total charge =  16.5723, s =  2.3430, p =  6.9914, d =  7.2379, 
                 spin up      =   6.9460, s =  1.1704, 
                 spin up      =   6.9460, p =  3.5016, pz=  1.1672, px=  1.1672, py=  1.1672, 
                 spin up      =   6.9460, d =  2.2740, dz2=  0.1400, dxz=  0.6647, dyz=  0.6647, dx2-y2=  0.1400, dxy=  0.6647, 
                 spin down    =   9.6263, s =  1.1726, 
                 spin down    =   9.6263, p =  3.4898, pz=  1.1633, px=  1.1633, py=  1.1633, 
                 spin down    =   9.6263, d =  4.9639, dz2=  0.9927, dxz=  0.9928, dyz=  0.9928, dx2-y2=  0.9927, dxy=  0.9928, 
                 polarization =  -2.6803, s = -0.0022, p =  0.0118, d = -2.6899, 
     Atom #   3: total charge =   6.3944, s =  1.5956, p =  4.7988, d =  0.0000, 
                 spin up      =   3.1972, s =  0.7978, 
                 spin up      =   3.1972, p =  2.3994, pz=  0.7998, px=  0.7998, py=  0.7998, 
                 spin up      =   3.1972, d =  0.0000, dz2=  0.0000, dxz=  0.0000, dyz=  0.0000, dx2-y2=  0.0000, dxy=  0.0000, 
                 spin down    =   3.1972, s =  0.7978, 
                 spin down    =   3.1972, p =  2.3994, pz=  0.7998, px=  0.7998, py=  0.7998, 
                 spin down    =   3.1972, d =  0.0000, dz2=  0.0000, dxz=  0.0000, dyz=  0.0000, dx2-y2=  0.0000, dxy=  0.0000, 
                 polarization =  -0.0000, s =  0.0000, p = -0.0000, d =  0.0000, 
     Atom #   4: total charge =   6.3944, s =  1.5956, p =  4.7988, d =  0.0000, 
                 spin up      =   3.1972, s =  0.7978, 
                 spin up      =   3.1972, p =  2.3994, pz=  0.7998, px=  0.7998, py=  0.7998, 
                 spin up      =   3.1972, d =  0.0000, dz2=  0.0000, dxz=  0.0000, dyz=  0.0000, dx2-y2=  0.0000, dxy=  0.0000, 
                 spin down    =   3.1972, s =  0.7978, 
                 spin down    =   3.1972, p =  2.3994, pz=  0.7998, px=  0.7998, py=  0.7998, 
                 spin down    =   3.1972, d =  0.0000, dz2=  0.0000, dxz=  0.0000, dyz=  0.0000, dx2-y2=  0.0000, dxy=  0.0000, 
                 polarization =  -0.0000, s =  0.0000, p = -0.0000, d =  0.0000, 
     Spilling Parameter:   0.0014
 
     PROJWFC      :      1.06s CPU      1.37s WALL

 
   This run was terminated on:  13: 8:26  23Jun2024            

=------------------------------------------------------------------------------=
   JOB DONE.
=------------------------------------------------------------------------------=
