
     Program PWSCF v.7.2 starts on 23Jun2024 at 13: 8:12 

     This program is part of the open-source Quantum ESPRESSO suite
     for quantum simulation of materials; please cite
         "P. Giannozzi et al., J. Phys.:Condens. Matter 21 395502 (2009);
         "P. Giannozzi et al., J. Phys.:Condens. Matter 29 465901 (2017);
         "P. Giannozzi et al., J. Chem. Phys. 152 154105 (2020);
          URL http://www.quantum-espresso.org", 
     in publications or presentations arising from this work. More details at
     http://www.quantum-espresso.org/quote

     Parallel version (MPI), running on    32 processors

     MPI processes distributed on     1 nodes
     225891 MiB available memory on the printing compute node when the environment starts
 
     Waiting for input...
     Reading input from standard input

     Current dimensions of program PWSCF are:
     Max number of different atomic species (ntypx) = 10
     Max number of k-points (npk) =  40000
     Max angular momentum in pseudopotentials (lmaxx) =  4
     Message from routine volume:
     axis vectors are left-handed
     file O.pbesol-n-kjpaw_psl.0.1.UPF: wavefunction(s)  2P renormalized
     Message from routine setup:
     using ibrav=0 with symmetry is DISCOURAGED, use correct ibrav instead
 
     K-points division:     npool     =       2
     R & G space division:  proc/nbgrp/npool/nimage =      16
     Subspace diagonalization in iterative solution of the eigenvalue problem:
     a serial algorithm will be used

 
     Parallelization info
     --------------------
     sticks:   dense  smooth     PW     G-vecs:    dense   smooth      PW
     Min          72      36     12                 1159      408      79
     Max          73      37     13                 1162      409      81
     Sum        1167     587    195                18569     6541    1269
 
     Using Slab Decomposition
 


     bravais-lattice index     =            0
     lattice parameter (alat)  =       8.0000  a.u.
     unit-cell volume          =     235.7543 (a.u.)^3
     number of atoms/cell      =            4
     number of atomic types    =            3
     number of electrons       =        46.00
     number of Kohn-Sham states=           28
     kinetic-energy cutoff     =      35.0000  Ry
     charge density cutoff     =     280.0000  Ry
     scf convergence threshold =      1.0E-10
     mixing beta               =       0.7000
     number of iterations used =            8  plain     mixing
     Exchange-correlation= SLA  PW   PSX  PSC
                           (   1   4  10   8   0   0   0)
     Hubbard projectors: ortho-atomic
     Hubbard parameters of DFT+U (Dudarev formulation) in eV:
     U(Co1-3d) =  6.3000
     U(Co2-3d) =  6.3000

     Internal variables: lda_plus_u = T, lda_plus_u_kind = 0

     celldm(1)=   8.000000  celldm(2)=   0.000000  celldm(3)=   0.000000
     celldm(4)=   0.000000  celldm(5)=   0.000000  celldm(6)=   0.000000

     crystal axes: (cart. coord. in units of alat)
               a(1) = (   0.570726   0.570726   1.031099 )  
               a(2) = (   0.570726   1.031099   0.570726 )  
               a(3) = (   1.031099   0.570726   0.570726 )  

     reciprocal axes: (cart. coord. in units 2 pi/alat)
               b(1) = ( -0.570621 -0.570621  1.601531 )  
               b(2) = ( -0.570621  1.601531 -0.570621 )  
               b(3) = (  1.601531 -0.570621 -0.570621 )  


     PseudoPot. # 1 for Co read from file:
     ./co_pbesol_v1.2.uspp.F.UPF
     MD5 check sum: 3b4cd4e7cc7df4da9fdede0fd33e2193
     Pseudo is Ultrasoft + core correction, Zval = 17.0
     Generated by new atomic code, or converted to UPF format
     Using radial grid of  863 points,  6 beta functions with: 
                l(1) =   0
                l(2) =   0
                l(3) =   1
                l(4) =   1
                l(5) =   2
                l(6) =   2
     Q(r) pseudized with  8 coefficients,  rinner =    1.200   1.200   1.200
                                                       1.200   1.200

     PseudoPot. # 2 for Co read from file:
     ./co_pbesol_v1.2.uspp.F.UPF
     MD5 check sum: 3b4cd4e7cc7df4da9fdede0fd33e2193
     Pseudo is Ultrasoft + core correction, Zval = 17.0
     Generated by new atomic code, or converted to UPF format
     Using radial grid of  863 points,  6 beta functions with: 
                l(1) =   0
                l(2) =   0
                l(3) =   1
                l(4) =   1
                l(5) =   2
                l(6) =   2
     Q(r) pseudized with  8 coefficients,  rinner =    1.200   1.200   1.200
                                                       1.200   1.200

     PseudoPot. # 3 for O  read from file:
     ./O.pbesol-n-kjpaw_psl.0.1.UPF
     MD5 check sum: 126339daddaa87477ab44acfa0b5aa00
     Pseudo is Projector augmented-wave + core cor, Zval =  6.0
     Generated using "atomic" code by A. Dal Corso  v.6.0 svn rev. 13079
     Shape of augmentation charge: BESSEL
     Using radial grid of 1095 points,  4 beta functions with: 
                l(1) =   0
                l(2) =   0
                l(3) =   1
                l(4) =   1
     Q(r) pseudized with 0 coefficients 


     atomic species   valence    mass     pseudopotential
        Co1           17.00    58.93319     Co( 1.00)
        Co2           17.00    58.93319     Co( 1.00)
        O              6.00    15.99900     O ( 1.00)

     Starting magnetic structure 
     atomic species   magnetization
        Co1          0.500
        Co2         -0.500
        O            0.000

     12 Sym. Ops., with inversion, found


                                    s                        frac. trans.

      isym =  1     identity                                     

 cryst.   s( 1) = (     1          0          0      )
                  (     0          1          0      )
                  (     0          0          1      )

 cart.    s( 1) = (  1.0000000  0.0000000  0.0000000 )
                  (  0.0000000  1.0000000  0.0000000 )
                  (  0.0000000  0.0000000  1.0000000 )


      isym =  2     180 deg rotation - cart. axis [1,-1,0]       

 cryst.   s( 2) = (    -1          0          0      )
                  (     0          0         -1      )
                  (     0         -1          0      )

 cart.    s( 2) = ( -0.0000000 -1.0000000 -0.0000000 )
                  ( -1.0000000 -0.0000000 -0.0000000 )
                  ( -0.0000000 -0.0000000 -1.0000000 )


      isym =  3     180 deg rotation - cart. axis [-1,0,1]       

 cryst.   s( 3) = (     0          0         -1      )
                  (     0         -1          0      )
                  (    -1          0          0      )

 cart.    s( 3) = ( -0.0000000 -0.0000000 -1.0000000 )
                  ( -0.0000000 -1.0000000 -0.0000000 )
                  ( -1.0000000 -0.0000000 -0.0000000 )


      isym =  4     180 deg rotation - cart. axis [0,1,-1]       

 cryst.   s( 4) = (     0         -1          0      )
                  (    -1          0          0      )
                  (     0          0         -1      )

 cart.    s( 4) = ( -1.0000000 -0.0000000 -0.0000000 )
                  ( -0.0000000 -0.0000000 -1.0000000 )
                  ( -0.0000000 -1.0000000 -0.0000000 )


      isym =  5     120 deg rotation - cart. axis [-1,-1,-1]     

 cryst.   s( 5) = (     0          1          0      )
                  (     0          0          1      )
                  (     1          0          0      )

 cart.    s( 5) = (  0.0000000  1.0000000  0.0000000 )
                  (  0.0000000  0.0000000  1.0000000 )
                  (  1.0000000  0.0000000  0.0000000 )


      isym =  6     120 deg rotation - cart. axis [1,1,1]        

 cryst.   s( 6) = (     0          0          1      )
                  (     1          0          0      )
                  (     0          1          0      )

 cart.    s( 6) = (  0.0000000  0.0000000  1.0000000 )
                  (  1.0000000  0.0000000  0.0000000 )
                  (  0.0000000  1.0000000  0.0000000 )


      isym =  7     inversion                                    

 cryst.   s( 7) = (    -1          0          0      )
                  (     0         -1          0      )
                  (     0          0         -1      )

 cart.    s( 7) = ( -1.0000000 -0.0000000 -0.0000000 )
                  ( -0.0000000 -1.0000000 -0.0000000 )
                  ( -0.0000000 -0.0000000 -1.0000000 )


      isym =  8     inv. 180 deg rotation - cart. axis [1,-1,0]  

 cryst.   s( 8) = (     1          0          0      )
                  (     0          0          1      )
                  (     0          1          0      )

 cart.    s( 8) = (  0.0000000  1.0000000  0.0000000 )
                  (  1.0000000  0.0000000  0.0000000 )
                  (  0.0000000  0.0000000  1.0000000 )


      isym =  9     inv. 180 deg rotation - cart. axis [-1,0,1]  

 cryst.   s( 9) = (     0          0          1      )
                  (     0          1          0      )
                  (     1          0          0      )

 cart.    s( 9) = (  0.0000000  0.0000000  1.0000000 )
                  (  0.0000000  1.0000000  0.0000000 )
                  (  1.0000000  0.0000000  0.0000000 )


      isym = 10     inv. 180 deg rotation - cart. axis [0,1,-1]  

 cryst.   s(10) = (     0          1          0      )
                  (     1          0          0      )
                  (     0          0          1      )

 cart.    s(10) = (  1.0000000  0.0000000  0.0000000 )
                  (  0.0000000  0.0000000  1.0000000 )
                  (  0.0000000  1.0000000  0.0000000 )


      isym = 11     inv. 120 deg rotation - cart. axis [-1,-1,-1]

 cryst.   s(11) = (     0         -1          0      )
                  (     0          0         -1      )
                  (    -1          0          0      )

 cart.    s(11) = ( -0.0000000 -1.0000000 -0.0000000 )
                  ( -0.0000000 -0.0000000 -1.0000000 )
                  ( -1.0000000 -0.0000000 -0.0000000 )


      isym = 12     inv. 120 deg rotation - cart. axis [1,1,1]   

 cryst.   s(12) = (     0          0         -1      )
                  (    -1          0          0      )
                  (     0         -1          0      )

 cart.    s(12) = ( -0.0000000 -0.0000000 -1.0000000 )
                  ( -1.0000000 -0.0000000 -0.0000000 )
                  ( -0.0000000 -1.0000000 -0.0000000 )


   Cartesian axes

     site n.     atom                  positions (alat units)
         1           Co1 tau(   1) = (   0.0000000   0.0000000   0.0000000  )
         2           Co2 tau(   2) = (   1.0862757   1.0862757   1.0862757  )
         3           O   tau(   3) = (   0.5431378   0.5431378   0.5431378  )
         4           O   tau(   4) = (   1.6294135   1.6294135   1.6294135  )

   Crystallographic axes

     site n.     atom                  positions (cryst. coord.)
         1           Co1 tau(   1) = (  0.0000000  0.0000000  0.0000000  )
         2           Co2 tau(   2) = (  0.5000000  0.5000000  0.5000000  )
         3           O   tau(   3) = (  0.2500000  0.2500000  0.2500000  )
         4           O   tau(   4) = (  0.7500000  0.7500000  0.7500000  )

     number of k points=     6  Marzari-Vanderbilt smearing, width (Ry)=  0.0200
                       cart. coord. in units 2pi/alat
        k(    1) = (   0.0000000   0.0000000   0.0000000), wk =   0.0370370
        k(    2) = (   0.5338435  -0.1902071  -0.1902071), wk =   0.2222222
        k(    3) = (   0.3436365   0.3436365  -0.3804141), wk =   0.2222222
        k(    4) = (  -0.7240506   0.7240506   0.0000000), wk =   0.2222222
        k(    5) = (   0.1534294   0.1534294   0.1534294), wk =   0.0740741
        k(    6) = (  -0.9142576   0.5338435   0.5338435), wk =   0.2222222

                       cryst. coord.
        k(    1) = (   0.0000000   0.0000000   0.0000000), wk =   0.0370370
        k(    2) = (   0.0000000   0.0000000   0.3333333), wk =   0.2222222
        k(    3) = (   0.0000000   0.3333333   0.3333333), wk =   0.2222222
        k(    4) = (   0.0000000   0.3333333  -0.3333333), wk =   0.2222222
        k(    5) = (   0.3333333   0.3333333   0.3333333), wk =   0.0740741
        k(    6) = (   0.3333333   0.3333333  -0.3333333), wk =   0.2222222

     Dense  grid:    18569 G-vectors     FFT dimensions: (  60,  60,  60)

     Smooth grid:     6541 G-vectors     FFT dimensions: (  40,  40,  40)

     Dynamical RAM for                 wfc:       0.02 MB

     Dynamical RAM for     wfc (w. buffer):       0.15 MB

     Dynamical RAM for             U proj.:       0.01 MB

     Dynamical RAM for  U proj. (w. buff.):       0.05 MB

     Dynamical RAM for           str. fact:       0.05 MB

     Dynamical RAM for           local pot:       0.00 MB

     Dynamical RAM for          nlocal pot:       0.04 MB

     Dynamical RAM for                qrad:       4.03 MB

     Dynamical RAM for          rho,v,vnew:       0.77 MB

     Dynamical RAM for               rhoin:       0.26 MB

     Dynamical RAM for            rho*nmix:       0.57 MB

     Dynamical RAM for           G-vectors:       0.07 MB

     Dynamical RAM for          h,s,v(r/c):       0.14 MB

     Dynamical RAM for          <psi|beta>:       0.02 MB

     Dynamical RAM for                 psi:       0.04 MB

     Dynamical RAM for                hpsi:       0.04 MB

     Dynamical RAM for                spsi:       0.04 MB

     Dynamical RAM for      wfcinit/wfcrot:       0.08 MB

     Dynamical RAM for           addusdens:       1.69 MB

     Estimated static dynamical RAM per process >       6.15 MB

     Estimated max dynamical RAM per process >       8.41 MB

     Estimated total dynamical RAM >     260.11 MB

     Check: negative core charge=   -0.000041
     Generating pointlists ...
     new r_m :   0.2019 (alat units)  1.6154 (a.u.) for type    1
     new r_m :   0.2019 (alat units)  1.6154 (a.u.) for type    2
     new r_m :   0.2019 (alat units)  1.6154 (a.u.) for type    3

     Initial potential from superposition of free atoms

     starting charge      44.0000, renormalised to      46.0000

     HUBBARD ENERGY =    0.5556  (Ry)

     STARTING HUBBARD OCCUPATIONS:

     =================== HUBBARD OCCUPATIONS ===================
     ------------------------ ATOM    1 ------------------------
     Tr[ns(  1)] (up, down, total) =   5.00000  2.00000  7.00000
     Atomic magnetic moment for atom   1 =   3.00000
     SPIN  1
     eigenvalues:
       1.000  1.000  1.000  1.000  1.000
     eigenvectors (columns):
       1.000  0.000  0.000  0.000  0.000
       0.000  1.000  0.000  0.000  0.000
       0.000  0.000  1.000  0.000  0.000
       0.000  0.000  0.000  1.000  0.000
       0.000  0.000  0.000  0.000  1.000
     occupation matrix ns (before diag.):
       1.000  0.000  0.000  0.000  0.000
       0.000  1.000  0.000  0.000  0.000
       0.000  0.000  1.000  0.000  0.000
       0.000  0.000  0.000  1.000  0.000
       0.000  0.000  0.000  0.000  1.000
     SPIN  2
     eigenvalues:
       0.400  0.400  0.400  0.400  0.400
     eigenvectors (columns):
       1.000  0.000  0.000  0.000  0.000
       0.000  1.000  0.000  0.000  0.000
       0.000  0.000  1.000  0.000  0.000
       0.000  0.000  0.000  1.000  0.000
       0.000  0.000  0.000  0.000  1.000
     occupation matrix ns (before diag.):
       0.400  0.000  0.000  0.000  0.000
       0.000  0.400  0.000  0.000  0.000
       0.000  0.000  0.400  0.000  0.000
       0.000  0.000  0.000  0.400  0.000
       0.000  0.000  0.000  0.000  0.400
     ------------------------ ATOM    2 ------------------------
     Tr[ns(  2)] (up, down, total) =   2.00000  5.00000  7.00000
     Atomic magnetic moment for atom   2 =  -3.00000
     SPIN  1
     eigenvalues:
       0.400  0.400  0.400  0.400  0.400
     eigenvectors (columns):
       1.000  0.000  0.000  0.000  0.000
       0.000  1.000  0.000  0.000  0.000
       0.000  0.000  1.000  0.000  0.000
       0.000  0.000  0.000  1.000  0.000
       0.000  0.000  0.000  0.000  1.000
     occupation matrix ns (before diag.):
       0.400  0.000  0.000  0.000  0.000
       0.000  0.400  0.000  0.000  0.000
       0.000  0.000  0.400  0.000  0.000
       0.000  0.000  0.000  0.400  0.000
       0.000  0.000  0.000  0.000  0.400
     SPIN  2
     eigenvalues:
       1.000  1.000  1.000  1.000  1.000
     eigenvectors (columns):
       1.000  0.000  0.000  0.000  0.000
       0.000  1.000  0.000  0.000  0.000
       0.000  0.000  1.000  0.000  0.000
       0.000  0.000  0.000  1.000  0.000
       0.000  0.000  0.000  0.000  1.000
     occupation matrix ns (before diag.):
       1.000  0.000  0.000  0.000  0.000
       0.000  1.000  0.000  0.000  0.000
       0.000  0.000  1.000  0.000  0.000
       0.000  0.000  0.000  1.000  0.000
       0.000  0.000  0.000  0.000  1.000

     Number of occupied Hubbard levels =   14.0000

     Atomic wfc used for Hubbard projectors are orthogonalized

     Starting wfcs are   34 randomized atomic wfcs
     Checking if some PAW data can be deallocated... 
       PAW data deallocated on   16 nodes for type:  3

     total cpu time spent up to now is        0.5 secs

     Self-consistent Calculation

     iteration #  1     ecut=    35.00 Ry     beta= 0.70
     Davidson diagonalization with overlap

---- Real-time Memory Report at c_bands before calling an iterative solver
           114 MiB given to the printing process from OS
             0 MiB allocation reported by mallinfo(arena+hblkhd)
        225079 MiB available memory on the node where the printing process lives
------------------
     ethr =  1.00E-02,  avg # of iterations =  3.0

     =================== HUBBARD OCCUPATIONS ===================
     ------------------------ ATOM    1 ------------------------
     Tr[ns(  1)] (up, down, total) =   4.85024  0.66696  5.51720
     Atomic magnetic moment for atom   1 =   4.18327
     SPIN  1
     eigenvalues:
       0.956  0.956  0.968  0.985  0.985
     eigenvectors (columns):
       0.141 -0.030 -0.000 -0.668 -0.730
       0.539  0.602 -0.577 -0.036  0.112
       0.252 -0.768 -0.577  0.115 -0.025
       0.030  0.141  0.000  0.730 -0.668
       0.791 -0.165  0.577  0.080  0.087
     occupation matrix ns (before diag.):
       0.984 -0.002 -0.002  0.000 -0.003
      -0.002  0.961  0.004 -0.003 -0.004
      -0.002  0.004  0.961  0.003 -0.004
       0.000 -0.003  0.003  0.984 -0.000
      -0.003 -0.004 -0.004 -0.000  0.961
     SPIN  2
     eigenvalues:
       0.049  0.049  0.169  0.200  0.200
     eigenvectors (columns):
       0.631  0.760  0.000  0.150  0.036
       0.044 -0.118 -0.577  0.556 -0.584
      -0.124  0.021 -0.577  0.228  0.774
      -0.760  0.631 -0.000  0.036 -0.150
      -0.080 -0.097  0.577  0.784  0.190
     occupation matrix ns (before diag.):
       0.053  0.009  0.009  0.000  0.019
       0.009  0.187 -0.009  0.016  0.009
       0.009 -0.009  0.187 -0.016  0.009
       0.000  0.016 -0.016  0.053 -0.000
       0.019  0.009  0.009 -0.000  0.187
     ------------------------ ATOM    2 ------------------------
     Tr[ns(  2)] (up, down, total) =   0.66753  4.85052  5.51805
     Atomic magnetic moment for atom   2 =  -4.18299
     SPIN  1
     eigenvalues:
       0.049  0.049  0.171  0.199  0.199
     eigenvectors (columns):
      -0.706  0.691  0.000  0.151  0.038
      -0.032 -0.123 -0.577  0.560 -0.581
       0.123  0.034 -0.577  0.223  0.775
       0.691  0.706 -0.000  0.038 -0.151
       0.091 -0.089  0.577  0.783  0.195
     occupation matrix ns (before diag.):
       0.053  0.009  0.009  0.000  0.019
       0.009  0.187 -0.008  0.016  0.008
       0.009 -0.008  0.187 -0.016  0.008
       0.000  0.016 -0.016  0.053 -0.000
       0.019  0.008  0.008 -0.000  0.187
     SPIN  2
     eigenvalues:
       0.956  0.956  0.968  0.985  0.985
     eigenvectors (columns):
       0.143 -0.028 -0.000 -0.667 -0.730
       0.532  0.608 -0.577 -0.036  0.114
       0.260 -0.765 -0.577  0.116 -0.026
       0.028  0.143  0.000  0.730 -0.667
       0.792 -0.157  0.577  0.080  0.088
     occupation matrix ns (before diag.):
       0.984 -0.002 -0.002  0.000 -0.003
      -0.002  0.961  0.004 -0.003 -0.004
      -0.002  0.004  0.961  0.003 -0.004
       0.000 -0.003  0.003  0.984 -0.000
      -0.003 -0.004 -0.004 -0.000  0.961

     Number of occupied Hubbard levels =   11.0352

     HUBBARD ENERGY =    0.3234  (Ry)

     total cpu time spent up to now is        0.7 secs

     total energy              =    -671.19252527 Ry
     estimated scf accuracy    <      12.32790242 Ry

     total magnetization       =    -0.00 Bohr mag/cell
     absolute magnetization    =     8.70 Bohr mag/cell

     iteration #  2     ecut=    35.00 Ry     beta= 0.70
     Davidson diagonalization with overlap

---- Real-time Memory Report at c_bands before calling an iterative solver
           118 MiB given to the printing process from OS
             0 MiB allocation reported by mallinfo(arena+hblkhd)
        225010 MiB available memory on the node where the printing process lives
------------------
     ethr =  1.00E-02,  avg # of iterations =  3.2

     =================== HUBBARD OCCUPATIONS ===================
     ------------------------ ATOM    1 ------------------------
     Tr[ns(  1)] (up, down, total) =   4.87090  4.88450  9.75540
     Atomic magnetic moment for atom   1 =  -0.01360
     SPIN  1
     eigenvalues:
       0.973  0.973  0.973  0.976  0.976
     eigenvectors (columns):
       0.000 -0.232  0.048 -0.787 -0.570
       0.577  0.250 -0.753  0.020 -0.193
       0.577  0.527  0.593 -0.177  0.079
      -0.000  0.048  0.232  0.570 -0.787
      -0.577  0.777 -0.160 -0.157 -0.114
     occupation matrix ns (before diag.):
       0.976  0.000  0.000  0.000  0.001
       0.000  0.973 -0.000  0.000  0.000
       0.000 -0.000  0.973 -0.000  0.000
       0.000  0.000 -0.000  0.976 -0.000
       0.001  0.000  0.000 -0.000  0.973
     SPIN  2
     eigenvalues:
       0.975  0.975  0.977  0.979  0.979
     eigenvectors (columns):
       0.581 -0.637 -0.000  0.483  0.151
       0.125  0.394  0.577  0.518 -0.477
      -0.404 -0.088  0.577  0.154  0.687
      -0.637 -0.581  0.000  0.151 -0.483
      -0.279  0.306 -0.577  0.672  0.210
     occupation matrix ns (before diag.):
       0.976  0.001  0.001  0.000  0.001
       0.001  0.977 -0.000  0.001  0.000
       0.001 -0.000  0.977 -0.001  0.000
       0.000  0.001 -0.001  0.976 -0.000
       0.001  0.000  0.000 -0.000  0.977
     ------------------------ ATOM    2 ------------------------
     Tr[ns(  2)] (up, down, total) =   4.88471  4.87097  9.75568
     Atomic magnetic moment for atom   2 =   0.01373
     SPIN  1
     eigenvalues:
       0.975  0.975  0.977  0.979  0.979
     eigenvectors (columns):
       0.594 -0.620 -0.000  0.496  0.131
       0.117  0.402  0.577  0.494 -0.497
      -0.407 -0.100  0.577  0.184  0.676
      -0.620 -0.594  0.000  0.131 -0.496
      -0.290  0.303 -0.577  0.678  0.179
     occupation matrix ns (before diag.):
       0.976  0.001  0.001  0.000  0.001
       0.001  0.977 -0.000  0.001  0.000
       0.001 -0.000  0.977 -0.001  0.000
       0.000  0.001 -0.001  0.976 -0.000
       0.001  0.000  0.000 -0.000  0.977
     SPIN  2
     eigenvalues:
       0.973  0.973  0.973  0.976  0.976
     eigenvectors (columns):
       0.000 -0.234  0.046 -0.798 -0.553
       0.577  0.257 -0.750  0.016 -0.194
       0.577  0.521  0.598 -0.176  0.083
      -0.000  0.046  0.234  0.553 -0.798
      -0.577  0.778 -0.152 -0.160 -0.111
     occupation matrix ns (before diag.):
       0.976  0.000  0.000  0.000  0.001
       0.000  0.973 -0.000  0.001  0.000
       0.000 -0.000  0.973 -0.001  0.000
       0.000  0.001 -0.001  0.976 -0.000
       0.001  0.000  0.000 -0.000  0.973

     Number of occupied Hubbard levels =   19.5111

     HUBBARD ENERGY =    0.5517  (Ry)

     total cpu time spent up to now is        0.9 secs

     total energy              =    -672.16182420 Ry
     estimated scf accuracy    <      59.46794322 Ry

     total magnetization       =    -0.00 Bohr mag/cell
     absolute magnetization    =     0.56 Bohr mag/cell

     iteration #  3     ecut=    35.00 Ry     beta= 0.70
     Davidson diagonalization with overlap

---- Real-time Memory Report at c_bands before calling an iterative solver
           119 MiB given to the printing process from OS
             0 MiB allocation reported by mallinfo(arena+hblkhd)
        225008 MiB available memory on the node where the printing process lives
------------------
     ethr =  1.00E-02,  avg # of iterations =  2.8

     =================== HUBBARD OCCUPATIONS ===================
     ------------------------ ATOM    1 ------------------------
     Tr[ns(  1)] (up, down, total) =   4.97860  2.23852  7.21712
     Atomic magnetic moment for atom   1 =   2.74008
     SPIN  1
     eigenvalues:
       0.994  0.994  0.996  0.997  0.997
     eigenvectors (columns):
      -0.773 -0.601  0.000  0.202 -0.028
       0.023 -0.165  0.577 -0.300  0.741
      -0.154  0.063  0.577 -0.492 -0.630
       0.601 -0.773 -0.000 -0.028 -0.202
      -0.131 -0.102 -0.577 -0.792  0.111
     occupation matrix ns (before diag.):
       0.995 -0.000 -0.000  0.000 -0.000
      -0.000  0.997 -0.000 -0.000  0.000
      -0.000 -0.000  0.997  0.000  0.000
       0.000 -0.000  0.000  0.995 -0.000
      -0.000  0.000  0.000 -0.000  0.997
     SPIN  2
     eigenvalues:
       0.137  0.137  0.552  0.706  0.706
     eigenvectors (columns):
      -0.587  0.805  0.000  0.086  0.016
      -0.029 -0.065 -0.577  0.529 -0.618
       0.071  0.008 -0.577  0.271  0.767
       0.805  0.587 -0.000  0.016 -0.086
       0.042 -0.057  0.577  0.800  0.149
     occupation matrix ns (before diag.):
       0.142  0.020  0.020  0.000  0.040
       0.020  0.652 -0.050  0.035  0.050
       0.020 -0.050  0.652 -0.035  0.050
       0.000  0.035 -0.035  0.142 -0.000
       0.040  0.050  0.050 -0.000  0.652
     ------------------------ ATOM    2 ------------------------
     Tr[ns(  2)] (up, down, total) =   2.23883  4.97858  7.21741
     Atomic magnetic moment for atom   2 =  -2.73975
     SPIN  1
     eigenvalues:
       0.137  0.137  0.557  0.704  0.704
     eigenvectors (columns):
      -0.694  0.715  0.000  0.087  0.014
      -0.020 -0.069 -0.577  0.512 -0.632
       0.069  0.018 -0.577  0.291  0.759
       0.715  0.694 -0.000  0.014 -0.087
       0.050 -0.051  0.577  0.803  0.128
     occupation matrix ns (before diag.):
       0.142  0.020  0.020  0.000  0.040
       0.020  0.652 -0.048  0.035  0.048
       0.020 -0.048  0.652 -0.035  0.048
       0.000  0.035 -0.035  0.142 -0.000
       0.040  0.048  0.048 -0.000  0.652
     SPIN  2
     eigenvalues:
       0.994  0.994  0.996  0.997  0.997
     eigenvectors (columns):
      -0.753 -0.625  0.000  0.201 -0.039
       0.028 -0.165  0.577 -0.259  0.756
      -0.157  0.058  0.577 -0.525 -0.603
       0.625 -0.753 -0.000 -0.039 -0.201
      -0.129 -0.107 -0.577 -0.784  0.153
     occupation matrix ns (before diag.):
       0.995 -0.000 -0.000  0.000 -0.000
      -0.000  0.997 -0.000 -0.000  0.000
      -0.000 -0.000  0.997  0.000  0.000
       0.000 -0.000  0.000  0.995 -0.000
      -0.000  0.000  0.000 -0.000  0.997

     Number of occupied Hubbard levels =   14.4345

     HUBBARD ENERGY =    0.4941  (Ry)

     total cpu time spent up to now is        1.0 secs

     total energy              =    -678.15653184 Ry
     estimated scf accuracy    <       0.43497156 Ry

     total magnetization       =     0.00 Bohr mag/cell
     absolute magnetization    =     5.78 Bohr mag/cell

     iteration #  4     ecut=    35.00 Ry     beta= 0.70
     Davidson diagonalization with overlap

---- Real-time Memory Report at c_bands before calling an iterative solver
           119 MiB given to the printing process from OS
             0 MiB allocation reported by mallinfo(arena+hblkhd)
        225007 MiB available memory on the node where the printing process lives
------------------
     ethr =  9.46E-04,  avg # of iterations =  2.2

     =================== HUBBARD OCCUPATIONS ===================
     ------------------------ ATOM    1 ------------------------
     Tr[ns(  1)] (up, down, total) =   4.96456  2.40413  7.36869
     Atomic magnetic moment for atom   1 =   2.56043
     SPIN  1
     eigenvalues:
       0.991  0.991  0.994  0.995  0.995
     eigenvectors (columns):
       0.746  0.662  0.000  0.076 -0.002
      -0.012  0.060 -0.577 -0.424 -0.695
       0.059 -0.019 -0.577 -0.390  0.715
      -0.662  0.746 -0.000  0.002  0.076
       0.046  0.041  0.577 -0.814  0.019
     occupation matrix ns (before diag.):
       0.991 -0.000 -0.000  0.000 -0.000
      -0.000  0.994 -0.000 -0.000  0.000
      -0.000 -0.000  0.994  0.000  0.000
       0.000 -0.000  0.000  0.991 -0.000
      -0.000  0.000  0.000 -0.000  0.994
     SPIN  2
     eigenvalues:
       0.166  0.166  0.342  0.866  0.866
     eigenvectors (columns):
      -0.615  0.786  0.000  0.064  0.008
      -0.020 -0.049 -0.577  0.497 -0.646
       0.052  0.007 -0.577  0.311  0.753
       0.786  0.615 -0.000  0.008 -0.064
       0.032 -0.041  0.577  0.808  0.107
     occupation matrix ns (before diag.):
       0.169  0.018  0.018  0.000  0.037
       0.018  0.689 -0.174  0.032  0.174
       0.018 -0.174  0.689 -0.032  0.174
       0.000  0.032 -0.032  0.169 -0.000
       0.037  0.174  0.174 -0.000  0.689
     ------------------------ ATOM    2 ------------------------
     Tr[ns(  2)] (up, down, total) =   2.40033  4.96465  7.36498
     Atomic magnetic moment for atom   2 =  -2.56433
     SPIN  1
     eigenvalues:
       0.166  0.166  0.350  0.859  0.859
     eigenvectors (columns):
      -0.666  0.743  0.000  0.063  0.010
      -0.016 -0.050 -0.577  0.510 -0.636
       0.051  0.011 -0.577  0.295  0.759
       0.743  0.666 -0.000  0.010 -0.063
       0.035 -0.039  0.577  0.805  0.124
     occupation matrix ns (before diag.):
       0.168  0.018  0.018  0.000  0.036
       0.018  0.688 -0.169  0.031  0.169
       0.018 -0.169  0.688 -0.031  0.169
       0.000  0.031 -0.031  0.168 -0.000
       0.036  0.169  0.169 -0.000  0.688
     SPIN  2
     eigenvalues:
       0.991  0.991  0.994  0.995  0.995
     eigenvectors (columns):
       0.710  0.699  0.000  0.080 -0.002
      -0.016  0.064 -0.577 -0.424 -0.694
       0.063 -0.018 -0.577 -0.389  0.715
      -0.699  0.710 -0.000  0.002  0.080
       0.047  0.046  0.577 -0.814  0.020
     occupation matrix ns (before diag.):
       0.991 -0.000 -0.000  0.000 -0.000
      -0.000  0.994 -0.000 -0.000  0.000
      -0.000 -0.000  0.994  0.000  0.000
       0.000 -0.000  0.000  0.991 -0.000
      -0.000  0.000  0.000 -0.000  0.994

     Number of occupied Hubbard levels =   14.7337

     HUBBARD ENERGY =    0.4023  (Ry)

     total cpu time spent up to now is        1.2 secs

     total energy              =    -678.28703702 Ry
     estimated scf accuracy    <       0.23755185 Ry

     total magnetization       =    -0.01 Bohr mag/cell
     absolute magnetization    =     5.41 Bohr mag/cell

     iteration #  5     ecut=    35.00 Ry     beta= 0.70
     Davidson diagonalization with overlap

---- Real-time Memory Report at c_bands before calling an iterative solver
           120 MiB given to the printing process from OS
             0 MiB allocation reported by mallinfo(arena+hblkhd)
        225007 MiB available memory on the node where the printing process lives
------------------
     ethr =  5.16E-04,  avg # of iterations =  2.0
     Minimization algorithm failed to find Fermi energy: reverting to bisection
     Possible cause: smearing is larger than the electronic band-gap.

     =================== HUBBARD OCCUPATIONS ===================
     ------------------------ ATOM    1 ------------------------
     Tr[ns(  1)] (up, down, total) =   4.96576  2.30879  7.27455
     Atomic magnetic moment for atom   1 =   2.65697
     SPIN  1
     eigenvalues:
       0.992  0.992  0.993  0.994  0.994
     eigenvectors (columns):
      -0.863 -0.323 -0.000  0.351 -0.166
      -0.052 -0.313  0.577 -0.062  0.750
      -0.245  0.202  0.577 -0.618 -0.428
       0.323 -0.863  0.000 -0.166 -0.351
      -0.297 -0.111 -0.577 -0.680  0.321
     occupation matrix ns (before diag.):
       0.992 -0.000 -0.000  0.000 -0.001
      -0.000  0.994 -0.000 -0.001  0.000
      -0.000 -0.000  0.994  0.001  0.000
       0.000 -0.001  0.001  0.992 -0.000
      -0.001  0.000  0.000 -0.000  0.994
     SPIN  2
     eigenvalues:
       0.107  0.136  0.136  0.965  0.965
     eigenvectors (columns):
      -0.000 -0.724 -0.689  0.045 -0.005
      -0.577 -0.009  0.036  0.487  0.654
      -0.577  0.036 -0.011  0.323 -0.749
       0.000  0.689 -0.724  0.005  0.045
       0.577  0.027  0.026  0.810 -0.095
     occupation matrix ns (before diag.):
       0.138  0.015  0.015  0.000  0.031
       0.015  0.678 -0.285  0.027  0.285
       0.015 -0.285  0.678 -0.027  0.285
       0.000  0.027 -0.027  0.138 -0.000
       0.031  0.285  0.285 -0.000  0.678
     ------------------------ ATOM    2 ------------------------
     Tr[ns(  2)] (up, down, total) =   2.32175  4.96605  7.28781
     Atomic magnetic moment for atom   2 =  -2.64430
     SPIN  1
     eigenvalues:
       0.112  0.138  0.138  0.967  0.967
     eigenvectors (columns):
      -0.000 -0.730 -0.681  0.046 -0.008
      -0.577 -0.009  0.037  0.519  0.629
      -0.577  0.037 -0.011  0.286 -0.764
       0.000  0.681 -0.730  0.008  0.046
       0.577  0.028  0.026  0.804 -0.135
     occupation matrix ns (before diag.):
       0.140  0.016  0.016  0.000  0.032
       0.016  0.681 -0.284  0.028  0.284
       0.016 -0.284  0.681 -0.028  0.284
       0.000  0.028 -0.028  0.140 -0.000
       0.032  0.284  0.284 -0.000  0.681
     SPIN  2
     eigenvalues:
       0.992  0.992  0.993  0.995  0.995
     eigenvectors (columns):
      -0.827 -0.424 -0.000  0.331 -0.166
      -0.015 -0.302  0.577 -0.044  0.757
      -0.254  0.164  0.577 -0.634 -0.416
       0.424 -0.827  0.000 -0.166 -0.331
      -0.269 -0.138 -0.577 -0.678  0.341
     occupation matrix ns (before diag.):
       0.992 -0.000 -0.000  0.000 -0.001
      -0.000  0.994 -0.000 -0.001  0.000
      -0.000 -0.000  0.994  0.001  0.000
       0.000 -0.001  0.001  0.992 -0.000
      -0.001  0.000  0.000 -0.000  0.994

     Number of occupied Hubbard levels =   14.5624

     HUBBARD ENERGY =    0.3282  (Ry)

     total cpu time spent up to now is        1.3 secs

     total energy              =    -678.39338837 Ry
     estimated scf accuracy    <       0.11083770 Ry

     total magnetization       =     0.01 Bohr mag/cell
     absolute magnetization    =     5.51 Bohr mag/cell

     iteration #  6     ecut=    35.00 Ry     beta= 0.70
     Davidson diagonalization with overlap

---- Real-time Memory Report at c_bands before calling an iterative solver
           120 MiB given to the printing process from OS
             0 MiB allocation reported by mallinfo(arena+hblkhd)
        225001 MiB available memory on the node where the printing process lives
------------------
     ethr =  2.41E-04,  avg # of iterations =  1.0

     =================== HUBBARD OCCUPATIONS ===================
     ------------------------ ATOM    1 ------------------------
     Tr[ns(  1)] (up, down, total) =   4.96635  2.30605  7.27240
     Atomic magnetic moment for atom   1 =   2.66030
     SPIN  1
     eigenvalues:
       0.991  0.991  0.994  0.995  0.995
     eigenvectors (columns):
       0.772  0.087  0.000  0.487 -0.399
       0.306 -0.413  0.577  0.103  0.626
       0.205  0.471  0.577 -0.594 -0.224
       0.087 -0.772 -0.000 -0.399 -0.487
       0.511  0.058 -0.577 -0.490  0.402
     occupation matrix ns (before diag.):
       0.993 -0.001 -0.001  0.000 -0.001
      -0.001  0.994  0.000 -0.001 -0.000
      -0.001  0.000  0.994  0.001 -0.000
       0.000 -0.001  0.001  0.993 -0.000
      -0.001 -0.000 -0.000 -0.000  0.994
     SPIN  2
     eigenvalues:
       0.072  0.142  0.142  0.975  0.975
     eigenvectors (columns):
      -0.000  0.736  0.676  0.028 -0.003
      -0.577  0.005 -0.022  0.489  0.654
      -0.577 -0.022  0.007  0.322 -0.750
       0.000 -0.676  0.736  0.003  0.028
       0.577 -0.017 -0.015  0.810 -0.097
     occupation matrix ns (before diag.):
       0.143  0.009  0.009  0.000  0.019
       0.009  0.674 -0.301  0.016  0.301
       0.009 -0.301  0.674 -0.016  0.301
       0.000  0.016 -0.016  0.143 -0.000
       0.019  0.301  0.301 -0.000  0.674
     ------------------------ ATOM    2 ------------------------
     Tr[ns(  2)] (up, down, total) =   2.29461  4.96473  7.25934
     Atomic magnetic moment for atom   2 =  -2.67012
     SPIN  1
     eigenvalues:
       0.071  0.138  0.138  0.974  0.974
     eigenvectors (columns):
      -0.000  0.624  0.781  0.028 -0.003
      -0.577  0.008 -0.022  0.485  0.656
      -0.577 -0.023  0.004  0.326 -0.748
       0.000 -0.781  0.624  0.003  0.028
       0.577 -0.015 -0.018  0.811 -0.092
     occupation matrix ns (before diag.):
       0.138  0.010  0.010  0.000  0.020
       0.010  0.673 -0.301  0.017  0.301
       0.010 -0.301  0.673 -0.017  0.301
       0.000  0.017 -0.017  0.138 -0.000
       0.020  0.301  0.301 -0.000  0.673
     SPIN  2
     eigenvalues:
       0.991  0.991  0.994  0.995  0.995
     eigenvectors (columns):
       0.792  0.093  0.000  0.454 -0.398
       0.294 -0.395  0.577  0.127  0.638
       0.195  0.453  0.577 -0.617 -0.209
       0.093 -0.792 -0.000 -0.398 -0.454
       0.490  0.057 -0.577 -0.489  0.429
     occupation matrix ns (before diag.):
       0.992 -0.001 -0.001  0.000 -0.001
      -0.001  0.993  0.000 -0.001 -0.000
      -0.001  0.000  0.993  0.001 -0.000
       0.000 -0.001  0.001  0.992 -0.000
      -0.001 -0.000 -0.000 -0.000  0.993

     Number of occupied Hubbard levels =   14.5317

     HUBBARD ENERGY =    0.1544  (Ry)

     total cpu time spent up to now is        1.4 secs

     WARNING: integrated charge=    46.00063828, expected=    46.00000000

     total energy              =    -678.43232750 Ry
     estimated scf accuracy    <       0.04045534 Ry

     total magnetization       =    -0.00 Bohr mag/cell
     absolute magnetization    =     5.52 Bohr mag/cell

     iteration #  7     ecut=    35.00 Ry     beta= 0.70
     Davidson diagonalization with overlap

---- Real-time Memory Report at c_bands before calling an iterative solver
           120 MiB given to the printing process from OS
             0 MiB allocation reported by mallinfo(arena+hblkhd)
        225000 MiB available memory on the node where the printing process lives
------------------
     ethr =  8.79E-05,  avg # of iterations =  2.2

     =================== HUBBARD OCCUPATIONS ===================
     ------------------------ ATOM    1 ------------------------
     Tr[ns(  1)] (up, down, total) =   4.95861  2.25574  7.21435
     Atomic magnetic moment for atom   1 =   2.70287
     SPIN  1
     eigenvalues:
       0.989  0.989  0.993  0.994  0.994
     eigenvectors (columns):
      -0.761 -0.065  0.000  0.488  0.422
      -0.302  0.432  0.577  0.117 -0.612
      -0.224 -0.477  0.577 -0.589  0.205
      -0.065  0.761 -0.000 -0.422  0.488
      -0.525 -0.045 -0.577 -0.472 -0.408
     occupation matrix ns (before diag.):
       0.991 -0.001 -0.001  0.000 -0.002
      -0.001  0.992  0.001 -0.002 -0.001
      -0.001  0.001  0.992  0.002 -0.001
       0.000 -0.002  0.002  0.991 -0.000
      -0.002 -0.001 -0.001 -0.000  0.992
     SPIN  2
     eigenvalues:
       0.039  0.129  0.129  0.980  0.980
     eigenvectors (columns):
      -0.000 -0.803 -0.596 -0.014  0.001
      -0.577  0.001 -0.011  0.456  0.677
      -0.577 -0.010  0.004  0.358 -0.734
       0.000  0.596 -0.803 -0.001 -0.014
       0.577 -0.009 -0.007  0.814 -0.056
     occupation matrix ns (before diag.):
       0.129 -0.005 -0.005  0.000 -0.010
      -0.005  0.666 -0.313 -0.008  0.313
      -0.005 -0.313  0.666  0.008  0.313
       0.000 -0.008  0.008  0.129 -0.000
      -0.010  0.313  0.313 -0.000  0.666
     ------------------------ ATOM    2 ------------------------
     Tr[ns(  2)] (up, down, total) =   2.32676  4.96974  7.29650
     Atomic magnetic moment for atom   2 =  -2.64297
     SPIN  1
     eigenvalues:
       0.046  0.157  0.157  0.983  0.983
     eigenvectors (columns):
      -0.000  0.754  0.657 -0.012  0.001
      -0.577 -0.002  0.009  0.486  0.656
      -0.577  0.009 -0.003  0.325 -0.749
       0.000 -0.657  0.754 -0.001 -0.012
       0.577  0.007  0.006  0.811 -0.093
     occupation matrix ns (before diag.):
       0.157 -0.004 -0.004  0.000 -0.008
      -0.004  0.671 -0.312 -0.007  0.312
      -0.004 -0.312  0.671  0.007  0.312
       0.000 -0.007  0.007  0.157 -0.000
      -0.008  0.312  0.312 -0.000  0.671
     SPIN  2
     eigenvalues:
       0.992  0.992  0.995  0.995  0.995
     eigenvectors (columns):
      -0.639 -0.155  0.000 -0.543 -0.522
      -0.425  0.445  0.577 -0.129  0.521
      -0.173 -0.590  0.577  0.516 -0.149
      -0.155  0.639 -0.000  0.522 -0.543
      -0.598 -0.145 -0.577  0.387  0.372
     occupation matrix ns (before diag.):
       0.994 -0.001 -0.001  0.000 -0.001
      -0.001  0.994  0.000 -0.001 -0.000
      -0.001  0.000  0.994  0.001 -0.000
       0.000 -0.001  0.001  0.994 -0.000
      -0.001 -0.000 -0.000 -0.000  0.994

     Number of occupied Hubbard levels =   14.5108

     HUBBARD ENERGY =    0.1552  (Ry)

     total cpu time spent up to now is        1.5 secs

     WARNING: integrated charge=    46.00048119, expected=    46.00000000

     total energy              =    -678.43856922 Ry
     estimated scf accuracy    <       0.01947731 Ry

     total magnetization       =     0.00 Bohr mag/cell
     absolute magnetization    =     5.52 Bohr mag/cell

     iteration #  8     ecut=    35.00 Ry     beta= 0.70
     Davidson diagonalization with overlap

---- Real-time Memory Report at c_bands before calling an iterative solver
           120 MiB given to the printing process from OS
             0 MiB allocation reported by mallinfo(arena+hblkhd)
        224999 MiB available memory on the node where the printing process lives
------------------
     ethr =  4.23E-05,  avg # of iterations =  2.2

     =================== HUBBARD OCCUPATIONS ===================
     ------------------------ ATOM    1 ------------------------
     Tr[ns(  1)] (up, down, total) =   4.96532  2.29147  7.25680
     Atomic magnetic moment for atom   1 =   2.67385
     SPIN  1
     eigenvalues:
       0.991  0.991  0.994  0.995  0.995
     eigenvectors (columns):
      -0.670 -0.147  0.000  0.526  0.503
      -0.401  0.439  0.577  0.133 -0.544
      -0.180 -0.566  0.577 -0.537  0.157
      -0.147  0.670 -0.000 -0.503  0.526
      -0.580 -0.128 -0.577 -0.405 -0.387
     occupation matrix ns (before diag.):
       0.993 -0.001 -0.001  0.000 -0.002
      -0.001  0.993  0.001 -0.001 -0.001
      -0.001  0.001  0.993  0.001 -0.001
       0.000 -0.001  0.001  0.993 -0.000
      -0.002 -0.001 -0.001 -0.000  0.993
     SPIN  2
     eigenvalues:
       0.043  0.143  0.143  0.982  0.982
     eigenvectors (columns):
      -0.000  0.657  0.754 -0.018  0.002
      -0.577 -0.005  0.014  0.466  0.671
      -0.577  0.015 -0.003  0.348 -0.739
       0.000 -0.754  0.657 -0.002 -0.018
       0.577  0.010  0.011  0.814 -0.068
     occupation matrix ns (before diag.):
       0.143 -0.006 -0.006  0.000 -0.012
      -0.006  0.669 -0.313 -0.011  0.313
      -0.006 -0.313  0.669  0.011  0.313
       0.000 -0.011  0.011  0.143 -0.000
      -0.012  0.313  0.313 -0.000  0.669
     ------------------------ ATOM    2 ------------------------
     Tr[ns(  2)] (up, down, total) =   2.28299  4.96414  7.24713
     Atomic magnetic moment for atom   2 =  -2.68115
     SPIN  1
     eigenvalues:
       0.042  0.139  0.139  0.982  0.982
     eigenvectors (columns):
      -0.000  0.732  0.681 -0.018  0.001
      -0.577 -0.003  0.014  0.462  0.673
      -0.577  0.014 -0.004  0.352 -0.737
       0.000 -0.681  0.732 -0.001 -0.018
       0.577  0.011  0.010  0.814 -0.063
     occupation matrix ns (before diag.):
       0.139 -0.006 -0.006  0.000 -0.012
      -0.006  0.668 -0.313 -0.011  0.313
      -0.006 -0.313  0.668  0.011  0.313
       0.000 -0.011  0.011  0.139 -0.000
      -0.012  0.313  0.313 -0.000  0.668
     SPIN  2
     eigenvalues:
       0.991  0.991  0.994  0.994  0.994
     eigenvectors (columns):
      -0.691 -0.152  0.000 -0.514 -0.485
      -0.389  0.426  0.577 -0.133  0.562
      -0.175 -0.550  0.577  0.554 -0.166
      -0.152  0.691 -0.000  0.485 -0.514
      -0.563 -0.124 -0.577  0.420  0.397
     occupation matrix ns (before diag.):
       0.993 -0.001 -0.001  0.000 -0.002
      -0.001  0.993  0.001 -0.001 -0.001
      -0.001  0.001  0.993  0.001 -0.001
       0.000 -0.001  0.001  0.993 -0.000
      -0.002 -0.001 -0.001 -0.000  0.993

     Number of occupied Hubbard levels =   14.5039

     HUBBARD ENERGY =    0.1825  (Ry)

     total cpu time spent up to now is        1.7 secs

     WARNING: integrated charge=    45.99979578, expected=    46.00000000

     total energy              =    -678.44235170 Ry
     estimated scf accuracy    <       0.00199218 Ry

     total magnetization       =    -0.00 Bohr mag/cell
     absolute magnetization    =     5.52 Bohr mag/cell

     iteration #  9     ecut=    35.00 Ry     beta= 0.70
     Davidson diagonalization with overlap

---- Real-time Memory Report at c_bands before calling an iterative solver
           121 MiB given to the printing process from OS
             0 MiB allocation reported by mallinfo(arena+hblkhd)
        224997 MiB available memory on the node where the printing process lives
------------------
     ethr =  4.33E-06,  avg # of iterations =  2.4

     =================== HUBBARD OCCUPATIONS ===================
     ------------------------ ATOM    1 ------------------------
     Tr[ns(  1)] (up, down, total) =   4.96491  2.28480  7.24971
     Atomic magnetic moment for atom   1 =   2.68011
     SPIN  1
     eigenvalues:
       0.991  0.991  0.994  0.995  0.995
     eigenvectors (columns):
       0.675  0.142 -0.000  0.530 -0.494
       0.395 -0.440 -0.577  0.126  0.548
       0.184  0.562 -0.577 -0.538 -0.165
       0.142 -0.675  0.000 -0.494 -0.530
       0.579  0.122  0.577 -0.412  0.384
     occupation matrix ns (before diag.):
       0.993 -0.001 -0.001  0.000 -0.001
      -0.001  0.993  0.000 -0.001 -0.000
      -0.001  0.000  0.993  0.001 -0.000
       0.000 -0.001  0.001  0.993 -0.000
      -0.001 -0.000 -0.000 -0.000  0.993
     SPIN  2
     eigenvalues:
       0.044  0.139  0.139  0.981  0.981
     eigenvectors (columns):
      -0.000 -0.714 -0.699 -0.037  0.002
      -0.577  0.008 -0.029  0.452  0.680
      -0.577 -0.029  0.008  0.363 -0.731
       0.000  0.699 -0.714 -0.002 -0.037
       0.577 -0.022 -0.021  0.814 -0.051
     occupation matrix ns (before diag.):
       0.140 -0.013 -0.013  0.000 -0.025
      -0.013  0.668 -0.312 -0.022  0.312
      -0.013 -0.312  0.668  0.022  0.312
       0.000 -0.022  0.022  0.140 -0.000
      -0.025  0.312  0.312 -0.000  0.668
     ------------------------ ATOM    2 ------------------------
     Tr[ns(  2)] (up, down, total) =   2.28055  4.96422  7.24478
     Atomic magnetic moment for atom   2 =  -2.68367
     SPIN  1
     eigenvalues:
       0.044  0.137  0.137  0.981  0.981
     eigenvectors (columns):
      -0.000 -0.724 -0.689 -0.037  0.003
      -0.577  0.007 -0.029  0.456  0.677
      -0.577 -0.029  0.008  0.358 -0.733
       0.000  0.689 -0.724 -0.003 -0.037
       0.577 -0.022 -0.021  0.814 -0.057
     occupation matrix ns (before diag.):
       0.138 -0.013 -0.013  0.000 -0.025
      -0.013  0.668 -0.312 -0.022  0.312
      -0.013 -0.312  0.668  0.022  0.312
       0.000 -0.022  0.022  0.138 -0.000
      -0.025  0.312  0.312 -0.000  0.668
     SPIN  2
     eigenvalues:
       0.991  0.991  0.994  0.994  0.994
     eigenvectors (columns):
      -0.683 -0.131  0.000  0.529  0.486
      -0.384  0.443  0.577  0.124 -0.554
      -0.192 -0.554  0.577 -0.542  0.170
      -0.131  0.683 -0.000 -0.486  0.529
      -0.576 -0.111 -0.577 -0.418 -0.385
     occupation matrix ns (before diag.):
       0.993 -0.001 -0.001  0.000 -0.001
      -0.001  0.993  0.000 -0.001 -0.000
      -0.001  0.000  0.993  0.001 -0.000
       0.000 -0.001  0.001  0.993 -0.000
      -0.001 -0.000 -0.000 -0.000  0.993

     Number of occupied Hubbard levels =   14.4945

     HUBBARD ENERGY =    0.1730  (Ry)

     total cpu time spent up to now is        1.8 secs

     WARNING: integrated charge=    45.99968981, expected=    46.00000000

     total energy              =    -678.44297179 Ry
     estimated scf accuracy    <       0.00109159 Ry

     total magnetization       =     0.00 Bohr mag/cell
     absolute magnetization    =     5.53 Bohr mag/cell

     iteration # 10     ecut=    35.00 Ry     beta= 0.70
     Davidson diagonalization with overlap

---- Real-time Memory Report at c_bands before calling an iterative solver
           121 MiB given to the printing process from OS
             0 MiB allocation reported by mallinfo(arena+hblkhd)
        224997 MiB available memory on the node where the printing process lives
------------------
     ethr =  2.37E-06,  avg # of iterations =  2.0

     =================== HUBBARD OCCUPATIONS ===================
     ------------------------ ATOM    1 ------------------------
     Tr[ns(  1)] (up, down, total) =   4.96431  2.28128  7.24559
     Atomic magnetic moment for atom   1 =   2.68302
     SPIN  1
     eigenvalues:
       0.991  0.991  0.994  0.994  0.994
     eigenvectors (columns):
      -0.674  0.144  0.000 -0.515  0.510
      -0.396 -0.440  0.577 -0.143 -0.544
      -0.182  0.563  0.577  0.542  0.148
      -0.144 -0.674 -0.000  0.510  0.515
      -0.579  0.124 -0.577  0.399 -0.396
     occupation matrix ns (before diag.):
       0.993 -0.001 -0.001  0.000 -0.001
      -0.001  0.993  0.000 -0.001 -0.000
      -0.001  0.000  0.993  0.001 -0.000
       0.000 -0.001  0.001  0.993 -0.000
      -0.001 -0.000 -0.000 -0.000  0.993
     SPIN  2
     eigenvalues:
       0.043  0.137  0.137  0.982  0.982
     eigenvectors (columns):
      -0.000 -0.756 -0.651 -0.068  0.001
      -0.577  0.010 -0.055  0.422  0.697
      -0.577 -0.053  0.018  0.393 -0.714
       0.000  0.651 -0.756 -0.001 -0.068
       0.577 -0.042 -0.037  0.814 -0.017
     occupation matrix ns (before diag.):
       0.141 -0.024 -0.024  0.000 -0.047
      -0.024  0.666 -0.312 -0.041  0.312
      -0.024 -0.312  0.666  0.041  0.312
       0.000 -0.041  0.041  0.141 -0.000
      -0.047  0.312  0.312 -0.000  0.666
     ------------------------ ATOM    2 ------------------------
     Tr[ns(  2)] (up, down, total) =   2.28245  4.96448  7.24693
     Atomic magnetic moment for atom   2 =  -2.68203
     SPIN  1
     eigenvalues:
       0.043  0.138  0.138  0.982  0.982
     eigenvectors (columns):
      -0.000 -0.663 -0.746 -0.068  0.001
      -0.577  0.018 -0.053  0.419  0.699
      -0.577 -0.055  0.011  0.395 -0.712
       0.000  0.746 -0.663 -0.001 -0.068
       0.577 -0.037 -0.042  0.814 -0.014
     occupation matrix ns (before diag.):
       0.142 -0.024 -0.024  0.000 -0.047
      -0.024  0.666 -0.312 -0.041  0.312
      -0.024 -0.312  0.666  0.041  0.312
       0.000 -0.041  0.041  0.142 -0.000
      -0.047  0.312  0.312 -0.000  0.666
     SPIN  2
     eigenvalues:
       0.991  0.991  0.994  0.994  0.994
     eigenvectors (columns):
      -0.670  0.147  0.000  0.516  0.513
      -0.400 -0.439  0.577  0.143 -0.541
      -0.180  0.566  0.577 -0.541  0.147
      -0.147 -0.670 -0.000 -0.513  0.516
      -0.580  0.127 -0.577 -0.397 -0.395
     occupation matrix ns (before diag.):
       0.993 -0.001 -0.001  0.000 -0.001
      -0.001  0.993  0.000 -0.001 -0.000
      -0.001  0.000  0.993  0.001 -0.000
       0.000 -0.001  0.001  0.993 -0.000
      -0.001 -0.000 -0.000 -0.000  0.993

     Number of occupied Hubbard levels =   14.4925

     HUBBARD ENERGY =    0.1644  (Ry)

     total cpu time spent up to now is        2.0 secs

     WARNING: integrated charge=    45.99990524, expected=    46.00000000

     total energy              =    -678.44486704 Ry
     estimated scf accuracy    <       0.00026229 Ry

     total magnetization       =    -0.00 Bohr mag/cell
     absolute magnetization    =     5.53 Bohr mag/cell

     iteration # 11     ecut=    35.00 Ry     beta= 0.70
     Davidson diagonalization with overlap

---- Real-time Memory Report at c_bands before calling an iterative solver
           121 MiB given to the printing process from OS
             0 MiB allocation reported by mallinfo(arena+hblkhd)
        224997 MiB available memory on the node where the printing process lives
------------------
     ethr =  5.70E-07,  avg # of iterations =  1.6

     =================== HUBBARD OCCUPATIONS ===================
     ------------------------ ATOM    1 ------------------------
     Tr[ns(  1)] (up, down, total) =   4.96454  2.28238  7.24692
     Atomic magnetic moment for atom   1 =   2.68216
     SPIN  1
     eigenvalues:
       0.991  0.991  0.994  0.994  0.994
     eigenvectors (columns):
       0.669  0.161 -0.000 -0.536  0.489
       0.408 -0.430 -0.577 -0.120 -0.549
       0.168  0.568 -0.577  0.535  0.170
       0.161 -0.669  0.000  0.489  0.536
       0.576  0.139  0.577  0.415 -0.379
     occupation matrix ns (before diag.):
       0.993 -0.001 -0.001  0.000 -0.001
      -0.001  0.993  0.000 -0.001 -0.000
      -0.001  0.000  0.993  0.001 -0.000
       0.000 -0.001  0.001  0.993 -0.000
      -0.001 -0.000 -0.000 -0.000  0.993
     SPIN  2
     eigenvalues:
       0.042  0.138  0.138  0.982  0.982
     eigenvectors (columns):
       0.000  0.615 -0.785 -0.079 -0.000
       0.577 -0.024 -0.060  0.407 -0.705
       0.577  0.064  0.009  0.407  0.705
      -0.000 -0.785 -0.615 -0.000  0.079
      -0.577  0.040 -0.051  0.814  0.000
     occupation matrix ns (before diag.):
       0.143 -0.027 -0.027  0.000 -0.055
      -0.027  0.665 -0.312 -0.047  0.312
      -0.027 -0.312  0.665  0.047  0.312
       0.000 -0.047  0.047  0.143 -0.000
      -0.055  0.312  0.312 -0.000  0.665
     ------------------------ ATOM    2 ------------------------
     Tr[ns(  2)] (up, down, total) =   2.28193  4.96447  7.24640
     Atomic magnetic moment for atom   2 =  -2.68253
     SPIN  1
     eigenvalues:
       0.042  0.138  0.138  0.982  0.982
     eigenvectors (columns):
       0.000 -0.681 -0.728  0.080  0.000
       0.577  0.019 -0.062 -0.410  0.703
       0.577 -0.063  0.015 -0.403 -0.707
      -0.000  0.728 -0.681  0.000 -0.080
      -0.577 -0.044 -0.047 -0.814 -0.004
     occupation matrix ns (before diag.):
       0.143 -0.027 -0.027  0.000 -0.055
      -0.027  0.665 -0.312 -0.047  0.312
      -0.027 -0.312  0.665  0.047  0.312
       0.000 -0.047  0.047  0.143 -0.000
      -0.055  0.312  0.312 -0.000  0.665
     SPIN  2
     eigenvalues:
       0.991  0.991  0.994  0.994  0.994
     eigenvectors (columns):
      -0.677  0.123  0.000  0.533 -0.492
      -0.383 -0.452  0.577  0.124  0.548
      -0.200  0.558  0.577 -0.537 -0.167
      -0.123 -0.677 -0.000 -0.492 -0.533
      -0.583  0.106 -0.577 -0.413  0.381
     occupation matrix ns (before diag.):
       0.993 -0.001 -0.001  0.000 -0.001
      -0.001  0.993  0.000 -0.001 -0.000
      -0.001  0.000  0.993  0.001 -0.000
       0.000 -0.001  0.001  0.993 -0.000
      -0.001 -0.000 -0.000 -0.000  0.993

     Number of occupied Hubbard levels =   14.4933

     HUBBARD ENERGY =    0.1602  (Ry)

     total cpu time spent up to now is        2.1 secs

     WARNING: integrated charge=    45.99999532, expected=    46.00000000

     total energy              =    -678.44507000 Ry
     estimated scf accuracy    <       0.00001956 Ry

     total magnetization       =     0.00 Bohr mag/cell
     absolute magnetization    =     5.53 Bohr mag/cell

     iteration # 12     ecut=    35.00 Ry     beta= 0.70
     Davidson diagonalization with overlap

---- Real-time Memory Report at c_bands before calling an iterative solver
           121 MiB given to the printing process from OS
             0 MiB allocation reported by mallinfo(arena+hblkhd)
        224997 MiB available memory on the node where the printing process lives
------------------
     ethr =  4.25E-08,  avg # of iterations =  2.0

     =================== HUBBARD OCCUPATIONS ===================
     ------------------------ ATOM    1 ------------------------
     Tr[ns(  1)] (up, down, total) =   4.96447  2.28178  7.24625
     Atomic magnetic moment for atom   1 =   2.68269
     SPIN  1
     eigenvalues:
       0.991  0.991  0.994  0.994  0.994
     eigenvectors (columns):
      -0.671  0.155  0.000  0.549  0.474
      -0.404 -0.433  0.577  0.105 -0.552
      -0.173  0.566  0.577 -0.531  0.185
      -0.155 -0.671 -0.000 -0.474  0.549
      -0.577  0.133 -0.577 -0.426 -0.367
     occupation matrix ns (before diag.):
       0.993 -0.001 -0.001  0.000 -0.001
      -0.001  0.993  0.000 -0.001 -0.000
      -0.001  0.000  0.993  0.001 -0.000
       0.000 -0.001  0.001  0.993 -0.000
      -0.001 -0.000 -0.000 -0.000  0.993
     SPIN  2
     eigenvalues:
       0.042  0.138  0.138  0.982  0.982
     eigenvectors (columns):
       0.000  0.742 -0.665  0.085  0.001
       0.577 -0.014 -0.068 -0.399 -0.709
       0.577  0.066  0.022 -0.415  0.700
      -0.000 -0.665 -0.742 -0.001  0.085
      -0.577  0.052 -0.046 -0.813 -0.009
     occupation matrix ns (before diag.):
       0.144 -0.029 -0.029  0.000 -0.059
      -0.029  0.665 -0.311 -0.051  0.311
      -0.029 -0.311  0.665  0.051  0.311
       0.000 -0.051  0.051  0.144 -0.000
      -0.059  0.311  0.311 -0.000  0.665
     ------------------------ ATOM    2 ------------------------
     Tr[ns(  2)] (up, down, total) =   2.28209  4.96454  7.24663
     Atomic magnetic moment for atom   2 =  -2.68244
     SPIN  1
     eigenvalues:
       0.042  0.138  0.138  0.982  0.982
     eigenvectors (columns):
       0.000  0.556 -0.827 -0.085  0.000
       0.577 -0.031 -0.063  0.407 -0.705
       0.577  0.070  0.005  0.407  0.705
      -0.000 -0.827 -0.556  0.000  0.085
      -0.577  0.039 -0.058  0.814 -0.000
     occupation matrix ns (before diag.):
       0.144 -0.029 -0.029  0.000 -0.059
      -0.029  0.665 -0.311 -0.051  0.311
      -0.029 -0.311  0.665  0.051  0.311
       0.000 -0.051  0.051  0.144 -0.000
      -0.059  0.311  0.311 -0.000  0.665
     SPIN  2
     eigenvalues:
       0.991  0.991  0.994  0.994  0.994
     eigenvectors (columns):
      -0.676  0.130  0.000  0.536 -0.489
      -0.388 -0.448  0.577  0.121  0.549
      -0.194  0.560  0.577 -0.536 -0.170
      -0.130 -0.676 -0.000 -0.489 -0.536
      -0.582  0.112 -0.577 -0.415  0.379
     occupation matrix ns (before diag.):
       0.993 -0.001 -0.001  0.000 -0.001
      -0.001  0.993  0.000 -0.001 -0.000
      -0.001  0.000  0.993  0.001 -0.000
       0.000 -0.001  0.001  0.993 -0.000
      -0.001 -0.000 -0.000 -0.000  0.993

     Number of occupied Hubbard levels =   14.4929

     HUBBARD ENERGY =    0.1609  (Ry)

     total cpu time spent up to now is        2.2 secs

     total energy              =    -678.44513254 Ry
     estimated scf accuracy    <       0.00000154 Ry

     total magnetization       =    -0.00 Bohr mag/cell
     absolute magnetization    =     5.53 Bohr mag/cell

     iteration # 13     ecut=    35.00 Ry     beta= 0.70
     Davidson diagonalization with overlap

---- Real-time Memory Report at c_bands before calling an iterative solver
           121 MiB given to the printing process from OS
             0 MiB allocation reported by mallinfo(arena+hblkhd)
        224997 MiB available memory on the node where the printing process lives
------------------
     ethr =  3.35E-09,  avg # of iterations =  1.8

     =================== HUBBARD OCCUPATIONS ===================
     ------------------------ ATOM    1 ------------------------
     Tr[ns(  1)] (up, down, total) =   4.96450  2.28202  7.24652
     Atomic magnetic moment for atom   1 =   2.68248
     SPIN  1
     eigenvalues:
       0.991  0.991  0.994  0.994  0.994
     eigenvectors (columns):
      -0.671  0.157  0.000 -0.498  0.527
      -0.405 -0.432  0.577 -0.161 -0.539
      -0.171  0.567  0.577  0.547  0.130
      -0.157 -0.671 -0.000  0.527  0.498
      -0.576  0.135 -0.577  0.386 -0.409
     occupation matrix ns (before diag.):
       0.993 -0.001 -0.001  0.000 -0.001
      -0.001  0.993  0.000 -0.001 -0.000
      -0.001  0.000  0.993  0.001 -0.000
       0.000 -0.001  0.001  0.993 -0.000
      -0.001 -0.000 -0.000 -0.000  0.993
     SPIN  2
     eigenvalues:
       0.042  0.138  0.138  0.982  0.982
     eigenvectors (columns):
      -0.000  0.758 -0.647 -0.085  0.001
      -0.577 -0.013 -0.068  0.400 -0.708
      -0.577  0.065  0.023  0.413  0.701
       0.000 -0.647 -0.758  0.001  0.085
       0.577  0.053 -0.045  0.814 -0.008
     occupation matrix ns (before diag.):
       0.144 -0.029 -0.029  0.000 -0.058
      -0.029  0.665 -0.311 -0.050  0.311
      -0.029 -0.311  0.665  0.050  0.311
       0.000 -0.050  0.050  0.144 -0.000
      -0.058  0.311  0.311 -0.000  0.665
     ------------------------ ATOM    2 ------------------------
     Tr[ns(  2)] (up, down, total) =   2.28206  4.96450  7.24657
     Atomic magnetic moment for atom   2 =  -2.68244
     SPIN  1
     eigenvalues:
       0.042  0.138  0.138  0.982  0.982
     eigenvectors (columns):
       0.000 -0.556  0.827  0.085 -0.000
       0.577  0.030  0.062 -0.406  0.705
       0.577 -0.069 -0.005 -0.407 -0.704
      -0.000  0.827  0.556 -0.000 -0.085
      -0.577 -0.039  0.057 -0.814  0.001
     occupation matrix ns (before diag.):
       0.144 -0.029 -0.029  0.000 -0.058
      -0.029  0.665 -0.311 -0.050  0.311
      -0.029 -0.311  0.665  0.050  0.311
       0.000 -0.050  0.050  0.144 -0.000
      -0.058  0.311  0.311 -0.000  0.665
     SPIN  2
     eigenvalues:
       0.991  0.991  0.994  0.994  0.994
     eigenvectors (columns):
       0.670  0.159 -0.000 -0.511  0.514
       0.406 -0.431 -0.577 -0.147 -0.543
       0.170  0.567 -0.577  0.544  0.144
       0.159 -0.670  0.000  0.514  0.511
       0.576  0.137  0.577  0.397 -0.399
     occupation matrix ns (before diag.):
       0.993 -0.001 -0.001  0.000 -0.001
      -0.001  0.993  0.000 -0.001 -0.000
      -0.001  0.000  0.993  0.001 -0.000
       0.000 -0.001  0.001  0.993 -0.000
      -0.001 -0.000 -0.000 -0.000  0.993

     Number of occupied Hubbard levels =   14.4931

     HUBBARD ENERGY =    0.1612  (Ry)

     total cpu time spent up to now is        2.4 secs

     total energy              =    -678.44513347 Ry
     estimated scf accuracy    <       0.00000018 Ry

     total magnetization       =    -0.00 Bohr mag/cell
     absolute magnetization    =     5.53 Bohr mag/cell

     iteration # 14     ecut=    35.00 Ry     beta= 0.70
     Davidson diagonalization with overlap

---- Real-time Memory Report at c_bands before calling an iterative solver
           121 MiB given to the printing process from OS
             0 MiB allocation reported by mallinfo(arena+hblkhd)
        224998 MiB available memory on the node where the printing process lives
------------------
     ethr =  3.81E-10,  avg # of iterations =  2.0

     =================== HUBBARD OCCUPATIONS ===================
     ------------------------ ATOM    1 ------------------------
     Tr[ns(  1)] (up, down, total) =   4.96450  2.28204  7.24654
     Atomic magnetic moment for atom   1 =   2.68246
     SPIN  1
     eigenvalues:
       0.991  0.991  0.994  0.994  0.994
     eigenvectors (columns):
      -0.668 -0.168  0.000 -0.516 -0.509
      -0.412  0.425  0.577 -0.142  0.544
      -0.162 -0.569  0.577  0.542 -0.150
      -0.168  0.668 -0.000  0.509 -0.516
      -0.574 -0.144 -0.577  0.401  0.395
     occupation matrix ns (before diag.):
       0.993 -0.001 -0.001  0.000 -0.001
      -0.001  0.993  0.000 -0.001 -0.000
      -0.001  0.000  0.993  0.001 -0.000
       0.000 -0.001  0.001  0.993 -0.000
      -0.001 -0.000 -0.000 -0.000  0.993
     SPIN  2
     eigenvalues:
       0.042  0.138  0.138  0.982  0.982
     eigenvectors (columns):
      -0.000 -0.785  0.614 -0.085  0.001
      -0.577  0.010  0.068  0.395 -0.711
      -0.577 -0.064 -0.026  0.419  0.698
       0.000  0.614  0.785  0.001  0.085
       0.577 -0.054  0.043  0.813 -0.014
     occupation matrix ns (before diag.):
       0.144 -0.029 -0.029  0.000 -0.058
      -0.029  0.665 -0.311 -0.050  0.311
      -0.029 -0.311  0.665  0.050  0.311
       0.000 -0.050  0.050  0.144 -0.000
      -0.058  0.311  0.311 -0.000  0.665
     ------------------------ ATOM    2 ------------------------
     Tr[ns(  2)] (up, down, total) =   2.28201  4.96450  7.24651
     Atomic magnetic moment for atom   2 =  -2.68248
     SPIN  1
     eigenvalues:
       0.042  0.138  0.138  0.982  0.982
     eigenvectors (columns):
       0.000 -0.761  0.644  0.085  0.000
       0.577  0.012  0.068 -0.403 -0.706
       0.577 -0.065 -0.023 -0.410  0.703
      -0.000  0.644  0.761 -0.000  0.085
      -0.577 -0.053  0.045 -0.814 -0.004
     occupation matrix ns (before diag.):
       0.144 -0.029 -0.029  0.000 -0.058
      -0.029  0.665 -0.311 -0.050  0.311
      -0.029 -0.311  0.665  0.050  0.311
       0.000 -0.050  0.050  0.144 -0.000
      -0.058  0.311  0.311 -0.000  0.665
     SPIN  2
     eigenvalues:
       0.991  0.991  0.994  0.994  0.994
     eigenvectors (columns):
       0.670  0.159 -0.000 -0.529  0.496
       0.406 -0.430 -0.577 -0.128 -0.548
       0.169  0.567 -0.577  0.538  0.163
       0.159 -0.670  0.000  0.496  0.529
       0.576  0.137  0.577  0.410 -0.385
     occupation matrix ns (before diag.):
       0.993 -0.001 -0.001  0.000 -0.001
      -0.001  0.993  0.000 -0.001 -0.000
      -0.001  0.000  0.993  0.001 -0.000
       0.000 -0.001  0.001  0.993 -0.000
      -0.001 -0.000 -0.000 -0.000  0.993

     Number of occupied Hubbard levels =   14.4930

     HUBBARD ENERGY =    0.1611  (Ry)

     total cpu time spent up to now is        2.5 secs

     total energy              =    -678.44513350 Ry
     estimated scf accuracy    <       0.00000002 Ry

     total magnetization       =     0.00 Bohr mag/cell
     absolute magnetization    =     5.53 Bohr mag/cell

     iteration # 15     ecut=    35.00 Ry     beta= 0.70
     Davidson diagonalization with overlap

---- Real-time Memory Report at c_bands before calling an iterative solver
           121 MiB given to the printing process from OS
             0 MiB allocation reported by mallinfo(arena+hblkhd)
        224996 MiB available memory on the node where the printing process lives
------------------
     ethr =  3.45E-11,  avg # of iterations =  2.0

     =================== HUBBARD OCCUPATIONS ===================
     ------------------------ ATOM    1 ------------------------
     Tr[ns(  1)] (up, down, total) =   4.96450  2.28204  7.24654
     Atomic magnetic moment for atom   1 =   2.68245
     SPIN  1
     eigenvalues:
       0.991  0.991  0.994  0.994  0.994
     eigenvectors (columns):
      -0.670 -0.159  0.000 -0.512 -0.513
      -0.406  0.431  0.577 -0.146  0.543
      -0.170 -0.567  0.577  0.544 -0.145
      -0.159  0.670 -0.000  0.513 -0.512
      -0.576 -0.136 -0.577  0.397  0.398
     occupation matrix ns (before diag.):
       0.993 -0.001 -0.001  0.000 -0.001
      -0.001  0.993  0.000 -0.001 -0.000
      -0.001  0.000  0.993  0.001 -0.000
       0.000 -0.001  0.001  0.993 -0.000
      -0.001 -0.000 -0.000 -0.000  0.993
     SPIN  2
     eigenvalues:
       0.042  0.138  0.138  0.982  0.982
     eigenvectors (columns):
       0.000 -0.674 -0.734  0.085  0.000
       0.577  0.021 -0.066 -0.404 -0.706
       0.577 -0.067  0.015 -0.410  0.703
      -0.000  0.734 -0.674 -0.000  0.085
      -0.577 -0.047 -0.051 -0.814 -0.004
     occupation matrix ns (before diag.):
       0.144 -0.029 -0.029  0.000 -0.058
      -0.029  0.665 -0.311 -0.050  0.311
      -0.029 -0.311  0.665  0.050  0.311
       0.000 -0.050  0.050  0.144 -0.000
      -0.058  0.311  0.311 -0.000  0.665
     ------------------------ ATOM    2 ------------------------
     Tr[ns(  2)] (up, down, total) =   2.28204  4.96450  7.24653
     Atomic magnetic moment for atom   2 =  -2.68246
     SPIN  1
     eigenvalues:
       0.042  0.138  0.138  0.982  0.982
     eigenvectors (columns):
      -0.000 -0.661 -0.745 -0.085  0.002
      -0.577  0.022 -0.066  0.426  0.693
      -0.577 -0.068  0.014  0.387 -0.716
       0.000  0.745 -0.661 -0.002 -0.085
       0.577 -0.046 -0.052  0.813 -0.022
     occupation matrix ns (before diag.):
       0.144 -0.029 -0.029  0.000 -0.058
      -0.029  0.665 -0.311 -0.050  0.311
      -0.029 -0.311  0.665  0.050  0.311
       0.000 -0.050  0.050  0.144 -0.000
      -0.058  0.311  0.311 -0.000  0.665
     SPIN  2
     eigenvalues:
       0.991  0.991  0.994  0.994  0.994
     eigenvectors (columns):
      -0.672 -0.153  0.000 -0.518 -0.507
      -0.402  0.434  0.577 -0.140  0.545
      -0.175 -0.565  0.577  0.542 -0.151
      -0.153  0.672 -0.000  0.507 -0.518
      -0.577 -0.131 -0.577  0.402  0.394
     occupation matrix ns (before diag.):
       0.993 -0.001 -0.001  0.000 -0.001
      -0.001  0.993  0.000 -0.001 -0.000
      -0.001  0.000  0.993  0.001 -0.000
       0.000 -0.001  0.001  0.993 -0.000
      -0.001 -0.000 -0.000 -0.000  0.993

     Number of occupied Hubbard levels =   14.4931

     HUBBARD ENERGY =    0.1612  (Ry)

     total cpu time spent up to now is        2.6 secs

     total energy              =    -678.44513354 Ry
     estimated scf accuracy    <          6.8E-10 Ry

     total magnetization       =     0.00 Bohr mag/cell
     absolute magnetization    =     5.53 Bohr mag/cell

     iteration # 16     ecut=    35.00 Ry     beta= 0.70
     Davidson diagonalization with overlap

---- Real-time Memory Report at c_bands before calling an iterative solver
           121 MiB given to the printing process from OS
             0 MiB allocation reported by mallinfo(arena+hblkhd)
        224995 MiB available memory on the node where the printing process lives
------------------
     ethr =  1.48E-12,  avg # of iterations =  2.0

     =================== HUBBARD OCCUPATIONS ===================
     ------------------------ ATOM    1 ------------------------
     Tr[ns(  1)] (up, down, total) =   4.96450  2.28205  7.24655
     Atomic magnetic moment for atom   1 =   2.68244
     SPIN  1
     eigenvalues:
       0.991  0.991  0.994  0.994  0.994
     eigenvectors (columns):
      -0.671  0.154  0.000  0.534  0.490
      -0.403 -0.433  0.577  0.122 -0.549
      -0.174  0.566  0.577 -0.537  0.169
      -0.154 -0.671 -0.000 -0.490  0.534
      -0.577  0.132 -0.577 -0.414 -0.381
     occupation matrix ns (before diag.):
       0.993 -0.001 -0.001  0.000 -0.001
      -0.001  0.993  0.000 -0.001 -0.000
      -0.001  0.000  0.993  0.001 -0.000
       0.000 -0.001  0.001  0.993 -0.000
      -0.001 -0.000 -0.000 -0.000  0.993
     SPIN  2
     eigenvalues:
       0.042  0.138  0.138  0.982  0.982
     eigenvectors (columns):
       0.000  0.701 -0.708  0.085  0.000
       0.577 -0.018 -0.067 -0.405 -0.706
       0.577  0.067  0.018 -0.409  0.703
      -0.000 -0.708 -0.701 -0.000  0.085
      -0.577  0.049 -0.049 -0.814 -0.002
     occupation matrix ns (before diag.):
       0.144 -0.029 -0.029  0.000 -0.058
      -0.029  0.665 -0.311 -0.050  0.311
      -0.029 -0.311  0.665  0.050  0.311
       0.000 -0.050  0.050  0.144 -0.000
      -0.058  0.311  0.311 -0.000  0.665
     ------------------------ ATOM    2 ------------------------
     Tr[ns(  2)] (up, down, total) =   2.28205  4.96450  7.24655
     Atomic magnetic moment for atom   2 =  -2.68244
     SPIN  1
     eigenvalues:
       0.042  0.138  0.138  0.982  0.982
     eigenvectors (columns):
       0.000  0.667 -0.741  0.085  0.000
       0.577 -0.021 -0.066 -0.406 -0.705
       0.577  0.068  0.014 -0.408  0.704
      -0.000 -0.741 -0.667 -0.000  0.085
      -0.577  0.046 -0.051 -0.814 -0.001
     occupation matrix ns (before diag.):
       0.144 -0.029 -0.029  0.000 -0.058
      -0.029  0.665 -0.311 -0.050  0.311
      -0.029 -0.311  0.665  0.050  0.311
       0.000 -0.050  0.050  0.144 -0.000
      -0.058  0.311  0.311 -0.000  0.665
     SPIN  2
     eigenvalues:
       0.991  0.991  0.994  0.994  0.994
     eigenvectors (columns):
      -0.673  0.146  0.000  0.510  0.515
      -0.398 -0.438  0.577  0.148 -0.543
      -0.180  0.564  0.577 -0.544  0.143
      -0.146 -0.673 -0.000 -0.515  0.510
      -0.578  0.126 -0.577 -0.396 -0.399
     occupation matrix ns (before diag.):
       0.993 -0.001 -0.001  0.000 -0.001
      -0.001  0.993  0.000 -0.001 -0.000
      -0.001  0.000  0.993  0.001 -0.000
       0.000 -0.001  0.001  0.993 -0.000
      -0.001 -0.000 -0.000 -0.000  0.993

     Number of occupied Hubbard levels =   14.4931

     HUBBARD ENERGY =    0.1612  (Ry)

     total cpu time spent up to now is        2.8 secs

     total energy              =    -678.44513355 Ry
     estimated scf accuracy    <          4.7E-10 Ry

     total magnetization       =     0.00 Bohr mag/cell
     absolute magnetization    =     5.53 Bohr mag/cell

     iteration # 17     ecut=    35.00 Ry     beta= 0.70
     Davidson diagonalization with overlap

---- Real-time Memory Report at c_bands before calling an iterative solver
           121 MiB given to the printing process from OS
             0 MiB allocation reported by mallinfo(arena+hblkhd)
        224995 MiB available memory on the node where the printing process lives
------------------
     ethr =  1.03E-12,  avg # of iterations =  2.0

     =================== HUBBARD OCCUPATIONS ===================
     ------------------------ ATOM    1 ------------------------
     Tr[ns(  1)] (up, down, total) =   4.96450  2.28205  7.24654
     Atomic magnetic moment for atom   1 =   2.68245
     SPIN  1
     eigenvalues:
       0.991  0.991  0.994  0.994  0.994
     eigenvectors (columns):
      -0.657 -0.206  0.000 -0.508 -0.517
      -0.436  0.400  0.577 -0.150  0.542
      -0.129 -0.578  0.577  0.545 -0.141
      -0.206  0.657 -0.000  0.517 -0.508
      -0.565 -0.177 -0.577  0.394  0.401
     occupation matrix ns (before diag.):
       0.993 -0.001 -0.001  0.000 -0.001
      -0.001  0.993  0.000 -0.001 -0.000
      -0.001  0.000  0.993  0.001 -0.000
       0.000 -0.001  0.001  0.993 -0.000
      -0.001 -0.000 -0.000 -0.000  0.993
     SPIN  2
     eigenvalues:
       0.042  0.138  0.138  0.982  0.982
     eigenvectors (columns):
       0.000  0.644  0.760  0.085  0.000
       0.577 -0.023  0.065 -0.410  0.703
       0.577  0.068 -0.012 -0.404 -0.706
      -0.000 -0.760  0.644  0.000 -0.085
      -0.577  0.045  0.053 -0.814 -0.003
     occupation matrix ns (before diag.):
       0.144 -0.029 -0.029  0.000 -0.058
      -0.029  0.665 -0.311 -0.050  0.311
      -0.029 -0.311  0.665  0.050  0.311
       0.000 -0.050  0.050  0.144 -0.000
      -0.058  0.311  0.311 -0.000  0.665
     ------------------------ ATOM    2 ------------------------
     Tr[ns(  2)] (up, down, total) =   2.28205  4.96450  7.24654
     Atomic magnetic moment for atom   2 =  -2.68245
     SPIN  1
     eigenvalues:
       0.042  0.138  0.138  0.982  0.982
     eigenvectors (columns):
       0.000 -0.707  0.702 -0.085 -0.000
       0.577  0.018  0.067  0.407 -0.705
       0.577 -0.067 -0.018  0.407  0.705
      -0.000  0.702  0.707 -0.000  0.085
      -0.577 -0.049  0.049  0.814  0.000
     occupation matrix ns (before diag.):
       0.144 -0.029 -0.029  0.000 -0.058
      -0.029  0.665 -0.311 -0.050  0.311
      -0.029 -0.311  0.665  0.050  0.311
       0.000 -0.050  0.050  0.144 -0.000
      -0.058  0.311  0.311 -0.000  0.665
     SPIN  2
     eigenvalues:
       0.991  0.991  0.994  0.994  0.994
     eigenvectors (columns):
      -0.677  0.129  0.000 -0.499 -0.526
      -0.386 -0.448  0.577 -0.160  0.539
      -0.195  0.559  0.577  0.547 -0.131
      -0.129 -0.677 -0.000  0.526 -0.499
      -0.581  0.110 -0.577  0.387  0.408
     occupation matrix ns (before diag.):
       0.993 -0.001 -0.001  0.000 -0.001
      -0.001  0.993  0.000 -0.001 -0.000
      -0.001  0.000  0.993  0.001 -0.000
       0.000 -0.001  0.001  0.993 -0.000
      -0.001 -0.000 -0.000 -0.000  0.993

     Number of occupied Hubbard levels =   14.4931

     HUBBARD ENERGY =    0.1612  (Ry)

     total cpu time spent up to now is        2.9 secs

     total energy              =    -678.44513355 Ry
     estimated scf accuracy    <          1.0E-10 Ry

     total magnetization       =     0.00 Bohr mag/cell
     absolute magnetization    =     5.53 Bohr mag/cell

     iteration # 18     ecut=    35.00 Ry     beta= 0.70
     Davidson diagonalization with overlap

---- Real-time Memory Report at c_bands before calling an iterative solver
           121 MiB given to the printing process from OS
             0 MiB allocation reported by mallinfo(arena+hblkhd)
        224995 MiB available memory on the node where the printing process lives
------------------
     ethr =  2.18E-13,  avg # of iterations =  2.0

     =================== HUBBARD OCCUPATIONS ===================
     ------------------------ ATOM    1 ------------------------
     Tr[ns(  1)] (up, down, total) =   4.96450  2.28205  7.24654
     Atomic magnetic moment for atom   1 =   2.68245
     SPIN  1
     eigenvalues:
       0.991  0.991  0.994  0.994  0.994
     eigenvectors (columns):
       0.681  0.103  0.000  0.548 -0.475
       0.369 -0.463  0.577  0.107  0.552
       0.216  0.551  0.577 -0.532 -0.184
       0.103 -0.681 -0.000 -0.475 -0.548
       0.585  0.088 -0.577 -0.425  0.368
     occupation matrix ns (before diag.):
       0.993 -0.001 -0.001  0.000 -0.001
      -0.001  0.993  0.000 -0.001 -0.000
      -0.001  0.000  0.993  0.001 -0.000
       0.000 -0.001  0.001  0.993 -0.000
      -0.001 -0.000 -0.000 -0.000  0.993
     SPIN  2
     eigenvalues:
       0.042  0.138  0.138  0.982  0.982
     eigenvectors (columns):
       0.000 -0.662  0.745  0.085 -0.000
       0.577  0.022  0.066 -0.406  0.705
       0.577 -0.068 -0.014 -0.407 -0.704
      -0.000  0.745  0.662 -0.000 -0.085
      -0.577 -0.046  0.052 -0.814  0.001
     occupation matrix ns (before diag.):
       0.144 -0.029 -0.029  0.000 -0.058
      -0.029  0.665 -0.311 -0.050  0.311
      -0.029 -0.311  0.665  0.050  0.311
       0.000 -0.050  0.050  0.144 -0.000
      -0.058  0.311  0.311 -0.000  0.665
     ------------------------ ATOM    2 ------------------------
     Tr[ns(  2)] (up, down, total) =   2.28205  4.96450  7.24654
     Atomic magnetic moment for atom   2 =  -2.68245
     SPIN  1
     eigenvalues:
       0.042  0.138  0.138  0.982  0.982
     eigenvectors (columns):
      -0.000  0.745 -0.662 -0.085  0.001
      -0.577 -0.014 -0.068  0.395 -0.711
      -0.577  0.066  0.022  0.418  0.698
       0.000 -0.662 -0.745  0.001  0.085
       0.577  0.052 -0.046  0.813 -0.013
     occupation matrix ns (before diag.):
       0.144 -0.029 -0.029  0.000 -0.058
      -0.029  0.665 -0.311 -0.050  0.311
      -0.029 -0.311  0.665  0.050  0.311
       0.000 -0.050  0.050  0.144 -0.000
      -0.058  0.311  0.311 -0.000  0.665
     SPIN  2
     eigenvalues:
       0.991  0.991  0.994  0.994  0.994
     eigenvectors (columns):
       0.670  0.161 -0.000 -0.521  0.504
       0.408 -0.429 -0.577 -0.137 -0.546
       0.168  0.568 -0.577  0.541  0.155
       0.161 -0.670  0.000  0.504  0.521
       0.575  0.138  0.577  0.404 -0.391
     occupation matrix ns (before diag.):
       0.993 -0.001 -0.001  0.000 -0.001
      -0.001  0.993  0.000 -0.001 -0.000
      -0.001  0.000  0.993  0.001 -0.000
       0.000 -0.001  0.001  0.993 -0.000
      -0.001 -0.000 -0.000 -0.000  0.993

     Number of occupied Hubbard levels =   14.4931

     HUBBARD ENERGY =    0.1612  (Ry)
 
     Magnetic moment per site  (integrated on atomic sphere of radius R)
     atom   1 (R=0.202)  charge= 14.5033  magn=  2.5614
     atom   2 (R=0.202)  charge= 14.5033  magn= -2.5614
     atom   3 (R=0.202)  charge=  5.7287  magn=  0.0000
     atom   4 (R=0.202)  charge=  5.7287  magn=  0.0000

     total cpu time spent up to now is        3.0 secs

     End of self-consistent calculation

 ------ SPIN UP ------------


          k = 0.0000 0.0000 0.0000 (   811 PWs)   bands (ev):

   -81.4497 -77.9153 -45.6497 -44.3984 -44.3984 -41.6770 -41.2824 -41.2824
    -4.8596  -3.6580   5.9767   8.2673   8.2673   9.0605   9.6507   9.6507
    11.7545  11.7545  11.8241  13.3926  13.3926  13.6270  13.6270  16.6142
    18.3204  19.0344  19.0344  22.2935

     occupation numbers 
     1.0000   1.0000   1.0000   1.0000   1.0000   1.0000   1.0000   1.0000
     1.0000   1.0000   1.0000   1.0000   1.0000   1.0000   1.0000   1.0000
     1.0000   1.0000   1.0000   1.0000   1.0000   1.0000   1.0000   0.0000
     0.0000   0.0000   0.0000   0.0000

          k = 0.5338-0.1902-0.1902 (   827 PWs)   bands (ev):

   -81.4438 -77.9078 -45.6414 -44.4604 -44.4139 -41.6665 -41.3546 -41.3002
    -3.6813  -3.2277   6.9993   7.8075   8.1542   8.2968   9.2415   9.5009
    10.0890  11.3744  11.5212  12.2562  12.9785  13.1490  14.0194  18.0371
    18.8473  19.0821  21.6698  23.8540

     occupation numbers 
     1.0000   1.0000   1.0000   1.0000   1.0000   1.0000   1.0000   1.0000
     1.0000   1.0000   1.0000   1.0000   1.0000   1.0000   1.0000   1.0000
     1.0000   1.0000   1.0000   1.0000   1.0000   1.0000   1.0000   0.0000
     0.0000   0.0000   0.0000   0.0000

          k = 0.3436 0.3436-0.3804 (   827 PWs)   bands (ev):

   -81.4439 -77.9079 -45.6413 -44.4606 -44.4138 -41.6663 -41.3547 -41.3002
    -3.5557  -3.3695   7.3233   7.5104   7.9524   8.2621   9.2394   9.9844
    10.1168  10.8237  11.9502  12.2751  12.4225  13.3533  14.3237  18.0433
    19.1174  19.2280  20.7817  22.9876

     occupation numbers 
     1.0000   1.0000   1.0000   1.0000   1.0000   1.0000   1.0000   1.0000
     1.0000   1.0000   1.0000   1.0000   1.0000   1.0000   1.0000   1.0000
     1.0000   1.0000   1.0000   1.0000   1.0000   1.0000   1.0000   0.0000
     0.0000   0.0000   0.0000   0.0000

          k =-0.7241 0.7241 0.0000 (   831 PWs)   bands (ev):

   -81.4405 -77.9036 -45.6368 -44.4570 -44.4567 -41.6607 -41.3501 -41.3500
    -2.9800  -2.9796   7.4214   7.5669   7.7074   8.4222   8.4395   9.0867
    10.0360  11.2631  11.5284  12.6057  12.8979  13.0595  13.2588  18.7441
    19.1527  19.2520  23.8492  24.4327

     occupation numbers 
     1.0000   1.0000   1.0000   1.0000   1.0000   1.0000   1.0000   1.0000
     1.0000   1.0000   1.0000   1.0000   1.0000   1.0000   1.0000   1.0000
     1.0000   1.0000   1.0000   1.0000   1.0000   1.0000   1.0000   0.0000
     0.0000   0.0000   0.0000   0.0000

          k = 0.1534 0.1534 0.1534 (   817 PWs)   bands (ev):

   -81.4498 -77.9150 -45.6494 -44.3983 -44.3983 -41.6771 -41.2823 -41.2823
    -4.5955  -4.0004   6.5629   8.3021   8.3021   8.9478   9.6656   9.6656
    10.7480  11.6401  11.6401  12.9280  12.9280  14.2609  14.2609  17.4448
    18.8969  18.8969  19.0311  21.2547

     occupation numbers 
     1.0000   1.0000   1.0000   1.0000   1.0000   1.0000   1.0000   1.0000
     1.0000   1.0000   1.0000   1.0000   1.0000   1.0000   1.0000   1.0000
     1.0000   1.0000   1.0000   1.0000   1.0000   1.0000   1.0000   0.0000
     0.0000   0.0000   0.0000   0.0000

          k =-0.9143 0.5338 0.5338 (   815 PWs)   bands (ev):

   -81.4438 -77.9077 -45.6409 -44.4600 -44.4136 -41.6661 -41.3543 -41.3000
    -3.5954  -3.3183   6.9518   7.5166   8.0370   8.2660   9.5264   9.9653
    10.1383  11.4440  11.6576  12.4260  12.5219  13.0411  13.8795  18.2570
    18.4743  19.2584  22.1974  22.5331

     occupation numbers 
     1.0000   1.0000   1.0000   1.0000   1.0000   1.0000   1.0000   1.0000
     1.0000   1.0000   1.0000   1.0000   1.0000   1.0000   1.0000   1.0000
     1.0000   1.0000   1.0000   1.0000   1.0000   1.0000   1.0000   0.0000
     0.0000   0.0000   0.0000   0.0000

 ------ SPIN DOWN ----------


          k = 0.0000 0.0000 0.0000 (   811 PWs)   bands (ev):

   -81.4497 -77.9153 -45.6496 -44.3985 -44.3985 -41.6771 -41.2824 -41.2824
    -4.8596  -3.6580   5.9767   8.2673   8.2673   9.0606   9.6507   9.6507
    11.7545  11.7545  11.8241  13.3926  13.3926  13.6271  13.6271  16.6142
    18.3203  19.0344  19.0344  22.2935

     occupation numbers 
     1.0000   1.0000   1.0000   1.0000   1.0000   1.0000   1.0000   1.0000
     1.0000   1.0000   1.0000   1.0000   1.0000   1.0000   1.0000   1.0000
     1.0000   1.0000   1.0000   1.0000   1.0000   1.0000   1.0000   0.0000
     0.0000   0.0000   0.0000   0.0000

          k = 0.5338-0.1902-0.1902 (   827 PWs)   bands (ev):

   -81.4438 -77.9078 -45.6413 -44.4604 -44.4139 -41.6665 -41.3546 -41.3002
    -3.6813  -3.2277   6.9993   7.8074   8.1543   8.2968   9.2415   9.5008
    10.0890  11.3744  11.5213  12.2563  12.9785  13.1490  14.0194  18.0371
    18.8473  19.0821  21.6698  23.8540

     occupation numbers 
     1.0000   1.0000   1.0000   1.0000   1.0000   1.0000   1.0000   1.0000
     1.0000   1.0000   1.0000   1.0000   1.0000   1.0000   1.0000   1.0000
     1.0000   1.0000   1.0000   1.0000   1.0000   1.0000   1.0000   0.0000
     0.0000   0.0000   0.0000   0.0000

          k = 0.3436 0.3436-0.3804 (   827 PWs)   bands (ev):

   -81.4439 -77.9079 -45.6412 -44.4606 -44.4139 -41.6663 -41.3547 -41.3002
    -3.5557  -3.3695   7.3234   7.5103   7.9524   8.2621   9.2394   9.9844
    10.1167  10.8237  11.9503  12.2751  12.4225  13.3533  14.3236  18.0433
    19.1174  19.2280  20.7817  22.9876

     occupation numbers 
     1.0000   1.0000   1.0000   1.0000   1.0000   1.0000   1.0000   1.0000
     1.0000   1.0000   1.0000   1.0000   1.0000   1.0000   1.0000   1.0000
     1.0000   1.0000   1.0000   1.0000   1.0000   1.0000   1.0000   0.0000
     0.0000   0.0000   0.0000   0.0000

          k =-0.7241 0.7241 0.0000 (   831 PWs)   bands (ev):

   -81.4405 -77.9036 -45.6367 -44.4570 -44.4568 -41.6608 -41.3501 -41.3500
    -2.9800  -2.9796   7.4214   7.5669   7.7074   8.4221   8.4395   9.0867
    10.0361  11.2630  11.5283  12.6057  12.8979  13.0595  13.2589  18.7441
    19.1527  19.2520  23.8492  24.4327

     occupation numbers 
     1.0000   1.0000   1.0000   1.0000   1.0000   1.0000   1.0000   1.0000
     1.0000   1.0000   1.0000   1.0000   1.0000   1.0000   1.0000   1.0000
     1.0000   1.0000   1.0000   1.0000   1.0000   1.0000   1.0000   0.0000
     0.0000   0.0000   0.0000   0.0000

          k = 0.1534 0.1534 0.1534 (   817 PWs)   bands (ev):

   -81.4498 -77.9150 -45.6493 -44.3984 -44.3984 -41.6771 -41.2823 -41.2823
    -4.5955  -4.0004   6.5630   8.3021   8.3021   8.9478   9.6656   9.6656
    10.7480  11.6400  11.6400  12.9281  12.9281  14.2609  14.2609  17.4448
    18.8969  18.8969  19.0311  21.2547

     occupation numbers 
     1.0000   1.0000   1.0000   1.0000   1.0000   1.0000   1.0000   1.0000
     1.0000   1.0000   1.0000   1.0000   1.0000   1.0000   1.0000   1.0000
     1.0000   1.0000   1.0000   1.0000   1.0000   1.0000   1.0000   0.0000
     0.0000   0.0000   0.0000   0.0000

          k =-0.9143 0.5338 0.5338 (   815 PWs)   bands (ev):

   -81.4438 -77.9078 -45.6408 -44.4601 -44.4137 -41.6662 -41.3543 -41.3000
    -3.5954  -3.3183   6.9517   7.5166   8.0370   8.2660   9.5264   9.9653
    10.1383  11.4440  11.6576  12.4260  12.5219  13.0411  13.8794  18.2569
    18.4743  19.2584  22.1974  22.5331

     occupation numbers 
     1.0000   1.0000   1.0000   1.0000   1.0000   1.0000   1.0000   1.0000
     1.0000   1.0000   1.0000   1.0000   1.0000   1.0000   1.0000   1.0000
     1.0000   1.0000   1.0000   1.0000   1.0000   1.0000   1.0000   0.0000
     0.0000   0.0000   0.0000   0.0000

     the Fermi energy is    15.6219 ev

!    total energy              =    -678.44513355 Ry
     estimated scf accuracy    <          3.7E-11 Ry
     smearing contrib. (-TS)   =       0.00000000 Ry
     internal energy E=F+TS    =    -678.44513355 Ry

     The total energy is F=E-TS. E is the sum of the following terms:
     one-electron contribution =    -341.01349178 Ry
     hartree contribution      =     200.35985811 Ry
     xc contribution           =     -79.77096380 Ry
     ewald contribution        =    -439.97286945 Ry
     Hubbard energy            =       0.16115422 Ry
     one-center paw contrib.   =     -18.20882084 Ry
      -> PAW hartree energy AE =       0.00000000 Ry
      -> PAW hartree energy PS =       0.00000000 Ry
      -> PAW xc energy AE      =       0.00000000 Ry
      -> PAW xc energy PS      =       0.00000000 Ry
      -> total E_H with PAW    =     200.35985811 Ry
      -> total E_XC with PAW   =     -79.77096380 Ry

     total magnetization       =     0.00 Bohr mag/cell
     absolute magnetization    =     5.53 Bohr mag/cell

     convergence has been achieved in  18 iterations

     Writing all to output data dir ./tmp/CoO.save/
 
     init_run     :      0.16s CPU      0.27s WALL (       1 calls)
     electrons    :      2.38s CPU      2.49s WALL (       1 calls)

     Called by init_run:
     wfcinit      :      0.03s CPU      0.06s WALL (       1 calls)
     wfcinit:atom :      0.00s CPU      0.00s WALL (       6 calls)
     wfcinit:wfcr :      0.03s CPU      0.04s WALL (       6 calls)
     potinit      :      0.05s CPU      0.07s WALL (       1 calls)
     hinit0       :      0.06s CPU      0.10s WALL (       1 calls)

     Called by electrons:
     c_bands      :      1.21s CPU      1.26s WALL (      18 calls)
     sum_band     :      0.32s CPU      0.33s WALL (      18 calls)
     v_of_rho     :      0.18s CPU      0.21s WALL (      19 calls)
     v_h          :      0.00s CPU      0.01s WALL (      19 calls)
     v_xc         :      0.18s CPU      0.21s WALL (      19 calls)
     newd         :      0.05s CPU      0.07s WALL (      19 calls)
     PAW_pot      :      0.60s CPU      0.61s WALL (      19 calls)
     mix_rho      :      0.02s CPU      0.02s WALL (      18 calls)

     Called by c_bands:
     init_us_2    :      0.00s CPU      0.00s WALL (     228 calls)
     init_us_2:cp :      0.00s CPU      0.00s WALL (     228 calls)
     cegterg      :      1.17s CPU      1.21s WALL (     108 calls)

     Called by sum_band:
     sum_band:wei :      0.01s CPU      0.01s WALL (      18 calls)
     sum_band:loo :      0.20s CPU      0.20s WALL (      18 calls)
     sum_band:buf :      0.00s CPU      0.00s WALL (     108 calls)
     sum_band:ini :      0.00s CPU      0.00s WALL (     108 calls)
     sum_band:cal :      0.01s CPU      0.01s WALL (     108 calls)
     sum_band:bec :      0.00s CPU      0.00s WALL (     108 calls)
     addusdens    :      0.08s CPU      0.08s WALL (      18 calls)
                                        0.00s GPU  (      18 calls)
     addusd:skk   :      0.00s CPU      0.00s WALL (      54 calls)
                                        0.00s GPU  (      54 calls)

     Called by *egterg:
     cdiaghg      :      0.23s CPU      0.24s WALL (     341 calls)
     cegterg:over :      0.04s CPU      0.04s WALL (     233 calls)
     cegterg:upda :      0.00s CPU      0.00s WALL (     233 calls)
     cegterg:last :      0.01s CPU      0.01s WALL (     216 calls)
     h_psi        :      0.89s CPU      0.92s WALL (     347 calls)
     s_psi        :      0.01s CPU      0.01s WALL (     353 calls)
     g_psi        :      0.00s CPU      0.00s WALL (     233 calls)

     Called by h_psi:
     h_psi:calbec :      0.03s CPU      0.03s WALL (     347 calls)
     vloc_psi     :      0.83s CPU      0.86s WALL (     347 calls)
     add_vuspsi   :      0.01s CPU      0.01s WALL (     347 calls)
     vhpsi        :      0.01s CPU      0.01s WALL (     347 calls)

     General routines
     calbec       :      0.06s CPU      0.06s WALL (     916 calls)
     fft          :      0.08s CPU      0.10s WALL (     469 calls)
     ffts         :      0.00s CPU      0.01s WALL (      74 calls)
     fftw         :      0.92s CPU      0.94s WALL (   18036 calls)
     interpolate  :      0.01s CPU      0.01s WALL (      38 calls)
     davcio       :      0.00s CPU      0.00s WALL (       6 calls)
 
     Parallel routines

     Hubbard U routines
     new_ns       :      0.01s CPU      0.01s WALL (      18 calls)
     vhpsi        :      0.01s CPU      0.01s WALL (     347 calls)

     PAW routines
     PAW_pot      :      0.60s CPU      0.61s WALL (      19 calls)
     PAW_symme    :      0.00s CPU      0.00s WALL (      37 calls)
 
     PWSCF        :      2.73s CPU      3.07s WALL

 
   This run was terminated on:  13: 8:15  23Jun2024            

=------------------------------------------------------------------------------=
   JOB DONE.
=------------------------------------------------------------------------------=
