
     Program PWSCF v.7.2 starts on 23Jun2024 at 13: 8:16 

     This program is part of the open-source Quantum ESPRESSO suite
     for quantum simulation of materials; please cite
         "P. Giannozzi et al., J. Phys.:Condens. Matter 21 395502 (2009);
         "P. Giannozzi et al., J. Phys.:Condens. Matter 29 465901 (2017);
         "P. Giannozzi et al., J. Chem. Phys. 152 154105 (2020);
          URL http://www.quantum-espresso.org", 
     in publications or presentations arising from this work. More details at
     http://www.quantum-espresso.org/quote

     Parallel version (MPI), running on    32 processors

     MPI processes distributed on     1 nodes
     225861 MiB available memory on the printing compute node when the environment starts
 
     Waiting for input...
     Reading input from standard input

     Current dimensions of program PWSCF are:
     Max number of different atomic species (ntypx) = 10
     Max number of k-points (npk) =  40000
     Max angular momentum in pseudopotentials (lmaxx) =  4
     Message from routine volume:
     axis vectors are left-handed

     Atomic positions and unit cell read from directory:
     ./tmp/CoO.save/
     Atomic positions from file used, from input discarded
 
     Message from routine volume:
     axis vectors are left-handed
     file O.pbesol-n-kjpaw_psl.0.1.UPF: wavefunction(s)  2P renormalized
     Message from routine setup:
     using ibrav=0 with symmetry is DISCOURAGED, use correct ibrav instead
 
     K-points division:     npool     =       2
     R & G space division:  proc/nbgrp/npool/nimage =      16
     Subspace diagonalization in iterative solution of the eigenvalue problem:
     a serial algorithm will be used

 
     Parallelization info
     --------------------
     sticks:   dense  smooth     PW     G-vecs:    dense   smooth      PW
     Min          72      36     12                 1159      408      86
     Max          73      37     13                 1162      409      88
     Sum        1167     587    207                18569     6541    1403
 
     Using Slab Decomposition
 


     bravais-lattice index     =            0
     lattice parameter (alat)  =       8.0000  a.u.
     unit-cell volume          =     235.7543 (a.u.)^3
     number of atoms/cell      =            4
     number of atomic types    =            3
     number of electrons       =        46.00
     number of Kohn-Sham states=           40
     kinetic-energy cutoff     =      35.0000  Ry
     charge density cutoff     =     280.0000  Ry
     Exchange-correlation= SLA  PW   PSX  PSC
                           (   1   4  10   8   0   0   0)
     Hubbard projectors: ortho-atomic
     Hubbard parameters of DFT+U (Dudarev formulation) in eV:
     U(Co1-3d) =  6.3000
     U(Co2-3d) =  6.3000

     Internal variables: lda_plus_u = T, lda_plus_u_kind = 0

     celldm(1)=   8.000000  celldm(2)=   0.000000  celldm(3)=   0.000000
     celldm(4)=   0.000000  celldm(5)=   0.000000  celldm(6)=   0.000000

     crystal axes: (cart. coord. in units of alat)
               a(1) = (   0.570726   0.570726   1.031099 )  
               a(2) = (   0.570726   1.031099   0.570726 )  
               a(3) = (   1.031099   0.570726   0.570726 )  

     reciprocal axes: (cart. coord. in units 2 pi/alat)
               b(1) = ( -0.570621 -0.570621  1.601531 )  
               b(2) = ( -0.570621  1.601531 -0.570621 )  
               b(3) = (  1.601531 -0.570621 -0.570621 )  


     PseudoPot. # 1 for Co read from file:
     ./co_pbesol_v1.2.uspp.F.UPF
     MD5 check sum: 3b4cd4e7cc7df4da9fdede0fd33e2193
     Pseudo is Ultrasoft + core correction, Zval = 17.0
     Generated by new atomic code, or converted to UPF format
     Using radial grid of  863 points,  6 beta functions with: 
                l(1) =   0
                l(2) =   0
                l(3) =   1
                l(4) =   1
                l(5) =   2
                l(6) =   2
     Q(r) pseudized with  8 coefficients,  rinner =    1.200   1.200   1.200
                                                       1.200   1.200

     PseudoPot. # 2 for Co read from file:
     ./co_pbesol_v1.2.uspp.F.UPF
     MD5 check sum: 3b4cd4e7cc7df4da9fdede0fd33e2193
     Pseudo is Ultrasoft + core correction, Zval = 17.0
     Generated by new atomic code, or converted to UPF format
     Using radial grid of  863 points,  6 beta functions with: 
                l(1) =   0
                l(2) =   0
                l(3) =   1
                l(4) =   1
                l(5) =   2
                l(6) =   2
     Q(r) pseudized with  8 coefficients,  rinner =    1.200   1.200   1.200
                                                       1.200   1.200

     PseudoPot. # 3 for O  read from file:
     ./O.pbesol-n-kjpaw_psl.0.1.UPF
     MD5 check sum: 126339daddaa87477ab44acfa0b5aa00
     Pseudo is Projector augmented-wave + core cor, Zval =  6.0
     Generated using "atomic" code by A. Dal Corso  v.6.0 svn rev. 13079
     Shape of augmentation charge: BESSEL
     Using radial grid of 1095 points,  4 beta functions with: 
                l(1) =   0
                l(2) =   0
                l(3) =   1
                l(4) =   1
     Q(r) pseudized with 0 coefficients 


     atomic species   valence    mass     pseudopotential
        Co1           17.00    58.93319     Co( 1.00)
        Co2           17.00    58.93319     Co( 1.00)
        O              6.00    15.99900     O ( 1.00)

     Starting magnetic structure 
     atomic species   magnetization
        Co1          0.500
        Co2         -0.500
        O            0.000

     12 Sym. Ops., with inversion, found


                                    s                        frac. trans.

      isym =  1     identity                                     

 cryst.   s( 1) = (     1          0          0      )
                  (     0          1          0      )
                  (     0          0          1      )

 cart.    s( 1) = (  1.0000000  0.0000000  0.0000000 )
                  (  0.0000000  1.0000000  0.0000000 )
                  (  0.0000000  0.0000000  1.0000000 )


      isym =  2     180 deg rotation - cart. axis [1,-1,0]       

 cryst.   s( 2) = (    -1          0          0      )
                  (     0          0         -1      )
                  (     0         -1          0      )

 cart.    s( 2) = ( -0.0000000 -1.0000000 -0.0000000 )
                  ( -1.0000000 -0.0000000 -0.0000000 )
                  ( -0.0000000 -0.0000000 -1.0000000 )


      isym =  3     180 deg rotation - cart. axis [-1,0,1]       

 cryst.   s( 3) = (     0          0         -1      )
                  (     0         -1          0      )
                  (    -1          0          0      )

 cart.    s( 3) = ( -0.0000000 -0.0000000 -1.0000000 )
                  ( -0.0000000 -1.0000000 -0.0000000 )
                  ( -1.0000000 -0.0000000 -0.0000000 )


      isym =  4     180 deg rotation - cart. axis [0,1,-1]       

 cryst.   s( 4) = (     0         -1          0      )
                  (    -1          0          0      )
                  (     0          0         -1      )

 cart.    s( 4) = ( -1.0000000 -0.0000000 -0.0000000 )
                  ( -0.0000000 -0.0000000 -1.0000000 )
                  ( -0.0000000 -1.0000000 -0.0000000 )


      isym =  5     120 deg rotation - cart. axis [-1,-1,-1]     

 cryst.   s( 5) = (     0          1          0      )
                  (     0          0          1      )
                  (     1          0          0      )

 cart.    s( 5) = (  0.0000000  1.0000000  0.0000000 )
                  (  0.0000000  0.0000000  1.0000000 )
                  (  1.0000000  0.0000000  0.0000000 )


      isym =  6     120 deg rotation - cart. axis [1,1,1]        

 cryst.   s( 6) = (     0          0          1      )
                  (     1          0          0      )
                  (     0          1          0      )

 cart.    s( 6) = (  0.0000000  0.0000000  1.0000000 )
                  (  1.0000000  0.0000000  0.0000000 )
                  (  0.0000000  1.0000000  0.0000000 )


      isym =  7     inversion                                    

 cryst.   s( 7) = (    -1          0          0      )
                  (     0         -1          0      )
                  (     0          0         -1      )

 cart.    s( 7) = ( -1.0000000 -0.0000000 -0.0000000 )
                  ( -0.0000000 -1.0000000 -0.0000000 )
                  ( -0.0000000 -0.0000000 -1.0000000 )


      isym =  8     inv. 180 deg rotation - cart. axis [1,-1,0]  

 cryst.   s( 8) = (     1          0          0      )
                  (     0          0          1      )
                  (     0          1          0      )

 cart.    s( 8) = (  0.0000000  1.0000000  0.0000000 )
                  (  1.0000000  0.0000000  0.0000000 )
                  (  0.0000000  0.0000000  1.0000000 )


      isym =  9     inv. 180 deg rotation - cart. axis [-1,0,1]  

 cryst.   s( 9) = (     0          0          1      )
                  (     0          1          0      )
                  (     1          0          0      )

 cart.    s( 9) = (  0.0000000  0.0000000  1.0000000 )
                  (  0.0000000  1.0000000  0.0000000 )
                  (  1.0000000  0.0000000  0.0000000 )


      isym = 10     inv. 180 deg rotation - cart. axis [0,1,-1]  

 cryst.   s(10) = (     0          1          0      )
                  (     1          0          0      )
                  (     0          0          1      )

 cart.    s(10) = (  1.0000000  0.0000000  0.0000000 )
                  (  0.0000000  0.0000000  1.0000000 )
                  (  0.0000000  1.0000000  0.0000000 )


      isym = 11     inv. 120 deg rotation - cart. axis [-1,-1,-1]

 cryst.   s(11) = (     0         -1          0      )
                  (     0          0         -1      )
                  (    -1          0          0      )

 cart.    s(11) = ( -0.0000000 -1.0000000 -0.0000000 )
                  ( -0.0000000 -0.0000000 -1.0000000 )
                  ( -1.0000000 -0.0000000 -0.0000000 )


      isym = 12     inv. 120 deg rotation - cart. axis [1,1,1]   

 cryst.   s(12) = (     0          0         -1      )
                  (    -1          0          0      )
                  (     0         -1          0      )

 cart.    s(12) = ( -0.0000000 -0.0000000 -1.0000000 )
                  ( -1.0000000 -0.0000000 -0.0000000 )
                  ( -0.0000000 -1.0000000 -0.0000000 )


   Cartesian axes

     site n.     atom                  positions (alat units)
         1           Co1 tau(   1) = (   0.0000000   0.0000000   0.0000000  )
         2           Co2 tau(   2) = (   1.0862757   1.0862757   1.0862757  )
         3           O   tau(   3) = (   0.5431378   0.5431378   0.5431378  )
         4           O   tau(   4) = (   1.6294135   1.6294135   1.6294135  )

   Crystallographic axes

     site n.     atom                  positions (cryst. coord.)
         1           Co1 tau(   1) = (  0.0000000  0.0000000  0.0000000  )
         2           Co2 tau(   2) = (  0.5000000  0.5000000  0.5000000  )
         3           O   tau(   3) = (  0.2500000  0.2500000  0.2500000  )
         4           O   tau(   4) = (  0.7500000  0.7500000  0.7500000  )

     number of k points=    32  Marzari-Vanderbilt smearing, width (Ry)=  0.0200
                       cart. coord. in units 2pi/alat
        k(    1) = (   0.0000000   0.0000000   0.0000000), wk =   0.0046296
        k(    2) = (   0.2669218  -0.0951035  -0.0951035), wk =   0.0277778
        k(    3) = (   0.5338435  -0.1902071  -0.1902071), wk =   0.0277778
        k(    4) = (  -0.8007653   0.2853106   0.2853106), wk =   0.0138889
        k(    5) = (   0.1718182   0.1718182  -0.1902071), wk =   0.0277778
        k(    6) = (   0.4387400   0.0767147  -0.2853106), wk =   0.0555556
        k(    7) = (  -0.8958688   0.5522323   0.1902071), wk =   0.0555556
        k(    8) = (  -0.6289471   0.4571288   0.0951035), wk =   0.0555556
        k(    9) = (  -0.3620253   0.3620253  -0.0000000), wk =   0.0277778
        k(   10) = (   0.3436365   0.3436365  -0.3804141), wk =   0.0277778
        k(   11) = (  -0.9909724   0.8191541   0.0951035), wk =   0.0555556
        k(   12) = (  -0.7240506   0.7240506   0.0000000), wk =   0.0277778
        k(   13) = (  -0.5154547  -0.5154547   0.5706212), wk =   0.0138889
        k(   14) = (   0.0767147   0.0767147   0.0767147), wk =   0.0092593
        k(   15) = (   0.3436365  -0.0183888  -0.0183888), wk =   0.0277778
        k(   16) = (  -0.9909724   0.4571288   0.4571288), wk =   0.0277778
        k(   17) = (  -0.7240506   0.3620253   0.3620253), wk =   0.0277778
        k(   18) = (  -0.4571288   0.2669218   0.2669218), wk =   0.0277778
        k(   19) = (   0.2485330   0.2485330  -0.1134923), wk =   0.0277778
        k(   20) = (  -1.0860759   0.7240506   0.3620253), wk =   0.0555556
        k(   21) = (  -0.8191541   0.6289471   0.2669218), wk =   0.0555556
        k(   22) = (  -0.5522323   0.5338435   0.1718182), wk =   0.0555556
        k(   23) = (  -0.6105583  -0.6105583   0.8375429), wk =   0.0277778
        k(   24) = (  -0.3436365  -0.7056618   0.7424394), wk =   0.0555556
        k(   25) = (  -0.0767147  -0.8007653   0.6473359), wk =   0.0277778
        k(   26) = (  -0.4387400  -0.4387400   0.6473359), wk =   0.0277778
        k(   27) = (   0.1534294   0.1534294   0.1534294), wk =   0.0092593
        k(   28) = (  -1.1811794   0.6289471   0.6289471), wk =   0.0277778
        k(   29) = (  -0.9142576   0.5338435   0.5338435), wk =   0.0277778
        k(   30) = (  -0.7056618  -0.7056618   1.1044647), wk =   0.0277778
        k(   31) = (  -0.4387400  -0.8007653   1.0093612), wk =   0.0277778
        k(   32) = (  -0.2301442  -0.2301442  -0.2301442), wk =   0.0046296

                       cryst. coord.
        k(    1) = (   0.0000000   0.0000000   0.0000000), wk =   0.0046296
        k(    2) = (   0.0000000   0.0000000   0.1666667), wk =   0.0277778
        k(    3) = (   0.0000000   0.0000000   0.3333333), wk =   0.0277778
        k(    4) = (  -0.0000000  -0.0000000  -0.5000000), wk =   0.0138889
        k(    5) = (   0.0000000   0.1666667   0.1666667), wk =   0.0277778
        k(    6) = (   0.0000000   0.1666667   0.3333333), wk =   0.0555556
        k(    7) = (   0.0000000   0.1666667  -0.5000000), wk =   0.0555556
        k(    8) = (   0.0000000   0.1666667  -0.3333333), wk =   0.0555556
        k(    9) = (  -0.0000000   0.1666667  -0.1666667), wk =   0.0277778
        k(   10) = (   0.0000000   0.3333333   0.3333333), wk =   0.0277778
        k(   11) = (   0.0000000   0.3333333  -0.5000000), wk =   0.0555556
        k(   12) = (   0.0000000   0.3333333  -0.3333333), wk =   0.0277778
        k(   13) = (  -0.0000000  -0.5000000  -0.5000000), wk =   0.0138889
        k(   14) = (   0.1666667   0.1666667   0.1666667), wk =   0.0092593
        k(   15) = (   0.1666667   0.1666667   0.3333333), wk =   0.0277778
        k(   16) = (   0.1666667   0.1666667  -0.5000000), wk =   0.0277778
        k(   17) = (   0.1666667   0.1666667  -0.3333333), wk =   0.0277778
        k(   18) = (   0.1666667   0.1666667  -0.1666667), wk =   0.0277778
        k(   19) = (   0.1666667   0.3333333   0.3333333), wk =   0.0277778
        k(   20) = (   0.1666667   0.3333333  -0.5000000), wk =   0.0555556
        k(   21) = (   0.1666667   0.3333333  -0.3333333), wk =   0.0555556
        k(   22) = (   0.1666667   0.3333333  -0.1666667), wk =   0.0555556
        k(   23) = (   0.1666667  -0.5000000  -0.5000000), wk =   0.0277778
        k(   24) = (   0.1666667  -0.5000000  -0.3333333), wk =   0.0555556
        k(   25) = (   0.1666667  -0.5000000  -0.1666667), wk =   0.0277778
        k(   26) = (   0.1666667  -0.3333333  -0.3333333), wk =   0.0277778
        k(   27) = (   0.3333333   0.3333333   0.3333333), wk =   0.0092593
        k(   28) = (   0.3333333   0.3333333  -0.5000000), wk =   0.0277778
        k(   29) = (   0.3333333   0.3333333  -0.3333333), wk =   0.0277778
        k(   30) = (   0.3333333  -0.5000000  -0.5000000), wk =   0.0277778
        k(   31) = (   0.3333333  -0.5000000  -0.3333333), wk =   0.0277778
        k(   32) = (  -0.5000000  -0.5000000  -0.5000000), wk =   0.0046296

     Dense  grid:    18569 G-vectors     FFT dimensions: (  60,  60,  60)

     Smooth grid:     6541 G-vectors     FFT dimensions: (  40,  40,  40)

     Dynamical RAM for                 wfc:       0.03 MB

     Dynamical RAM for     wfc (w. buffer):       0.03 MB

     Dynamical RAM for             U proj.:       0.01 MB

     Dynamical RAM for  U proj. (w. buff.):       0.01 MB

     Dynamical RAM for           str. fact:       0.05 MB

     Dynamical RAM for           local pot:       0.00 MB

     Dynamical RAM for          nlocal pot:       0.04 MB

     Dynamical RAM for                qrad:       4.03 MB

     Dynamical RAM for          rho,v,vnew:       0.77 MB

     Dynamical RAM for           G-vectors:       0.07 MB

     Dynamical RAM for          h,s,v(r/c):       0.29 MB

     Dynamical RAM for          <psi|beta>:       0.03 MB

     Dynamical RAM for                 psi:       0.06 MB

     Dynamical RAM for                hpsi:       0.06 MB

     Dynamical RAM for                spsi:       0.06 MB

     Dynamical RAM for      wfcinit/wfcrot:       0.10 MB

     Dynamical RAM for           addusdens:       1.69 MB

     Estimated static dynamical RAM per process >       5.73 MB

     Estimated max dynamical RAM per process >       7.42 MB

     Estimated total dynamical RAM >     237.48 MB

     Check: negative core charge=   -0.000041
     Generating pointlists ...
     new r_m :   0.2019 (alat units)  1.6154 (a.u.) for type    1
     new r_m :   0.2019 (alat units)  1.6154 (a.u.) for type    2
     new r_m :   0.2019 (alat units)  1.6154 (a.u.) for type    3

     The potential is recalculated from file :
     ./tmp/CoO.save/charge-density


     HUBBARD ENERGY =    0.1612  (Ry)

     STARTING HUBBARD OCCUPATIONS:

     =================== HUBBARD OCCUPATIONS ===================
     ------------------------ ATOM    1 ------------------------
     Tr[ns(  1)] (up, down, total) =   4.96450  2.28205  7.24654
     Atomic magnetic moment for atom   1 =   2.68245
     SPIN  1
     eigenvalues:
       0.991  0.991  0.994  0.994  0.994
     eigenvectors (columns):
       0.679  0.115  0.000  0.525 -0.500
       0.377 -0.456  0.577  0.132  0.547
       0.206  0.555  0.577 -0.540 -0.159
       0.115 -0.679 -0.000 -0.500 -0.525
       0.584  0.099 -0.577 -0.408  0.388
     occupation matrix ns (before diag.):
       0.993 -0.001 -0.001  0.000 -0.001
      -0.001  0.993  0.000 -0.001 -0.000
      -0.001  0.000  0.993  0.001 -0.000
       0.000 -0.001  0.001  0.993 -0.000
      -0.001 -0.000 -0.000 -0.000  0.993
     SPIN  2
     eigenvalues:
       0.042  0.138  0.138  0.982  0.982
     eigenvectors (columns):
      -0.000  0.820  0.567 -0.085  0.005
      -0.577 -0.006  0.069  0.449  0.679
      -0.577  0.062 -0.030  0.364 -0.728
       0.000 -0.567  0.820 -0.005 -0.085
       0.577  0.057  0.039  0.812 -0.049
     occupation matrix ns (before diag.):
       0.144 -0.029 -0.029  0.000 -0.058
      -0.029  0.665 -0.311 -0.050  0.311
      -0.029 -0.311  0.665  0.050  0.311
       0.000 -0.050  0.050  0.144 -0.000
      -0.058  0.311  0.311 -0.000  0.665
     ------------------------ ATOM    2 ------------------------
     Tr[ns(  2)] (up, down, total) =   2.28205  4.96450  7.24654
     Atomic magnetic moment for atom   2 =  -2.68245
     SPIN  1
     eigenvalues:
       0.042  0.138  0.138  0.982  0.982
     eigenvectors (columns):
      -0.000  0.635 -0.768 -0.085  0.005
      -0.577 -0.024 -0.065  0.361 -0.729
      -0.577  0.068  0.012  0.451  0.677
       0.000 -0.768 -0.635  0.005  0.085
       0.577  0.044 -0.053  0.812 -0.052
     occupation matrix ns (before diag.):
       0.144 -0.029 -0.029  0.000 -0.058
      -0.029  0.665 -0.311 -0.050  0.311
      -0.029 -0.311  0.665  0.050  0.311
       0.000 -0.050  0.050  0.144 -0.000
      -0.058  0.311  0.311 -0.000  0.665
     SPIN  2
     eigenvalues:
       0.991  0.991  0.994  0.994  0.994
     eigenvectors (columns):
      -0.673  0.148  0.000  0.523  0.502
      -0.399 -0.437  0.577  0.135 -0.546
      -0.179  0.564  0.577 -0.540  0.156
      -0.148 -0.673 -0.000 -0.502  0.523
      -0.578  0.127 -0.577 -0.406 -0.390
     occupation matrix ns (before diag.):
       0.993 -0.001 -0.001  0.000 -0.001
      -0.001  0.993  0.000 -0.001 -0.000
      -0.001  0.000  0.993  0.001 -0.000
       0.000 -0.001  0.001  0.993 -0.000
      -0.001 -0.000 -0.000 -0.000  0.993

     Number of occupied Hubbard levels =   14.4931

     Atomic wfc used for Hubbard projectors are orthogonalized

     Starting wfcs are   34 randomized atomic wfcs +    6 random wfcs
     Checking if some PAW data can be deallocated... 
       PAW data deallocated on   16 nodes for type:  3

     Band Structure Calculation
     Davidson diagonalization with overlap

     Computing kpt #:     1  of    32 on this pool
     total cpu time spent up to now is        0.6 secs

     Computing kpt #:     2  of    32 on this pool
     total cpu time spent up to now is        0.8 secs

     Computing kpt #:     3  of    32 on this pool
     total cpu time spent up to now is        0.9 secs

     Computing kpt #:     4  of    32 on this pool
     total cpu time spent up to now is        1.1 secs

     Computing kpt #:     5  of    32 on this pool
     total cpu time spent up to now is        1.2 secs

     Computing kpt #:     6  of    32 on this pool
     total cpu time spent up to now is        1.4 secs

     Computing kpt #:     7  of    32 on this pool
     total cpu time spent up to now is        1.5 secs

     Computing kpt #:     8  of    32 on this pool
     total cpu time spent up to now is        1.7 secs

     Computing kpt #:     9  of    32 on this pool
     total cpu time spent up to now is        1.8 secs

     Computing kpt #:    10  of    32 on this pool
     total cpu time spent up to now is        2.0 secs

     Computing kpt #:    11  of    32 on this pool
     total cpu time spent up to now is        2.2 secs

     Computing kpt #:    12  of    32 on this pool
     total cpu time spent up to now is        2.3 secs

     Computing kpt #:    13  of    32 on this pool
     total cpu time spent up to now is        2.4 secs

     Computing kpt #:    14  of    32 on this pool
     total cpu time spent up to now is        2.6 secs

     Computing kpt #:    15  of    32 on this pool
     total cpu time spent up to now is        2.7 secs

     Computing kpt #:    16  of    32 on this pool
     total cpu time spent up to now is        2.9 secs

     Computing kpt #:    17  of    32 on this pool
     total cpu time spent up to now is        3.0 secs

     Computing kpt #:    18  of    32 on this pool
     total cpu time spent up to now is        3.2 secs

     Computing kpt #:    19  of    32 on this pool
     total cpu time spent up to now is        3.4 secs

     Computing kpt #:    20  of    32 on this pool
     total cpu time spent up to now is        3.5 secs

     Computing kpt #:    21  of    32 on this pool
     total cpu time spent up to now is        3.7 secs

     Computing kpt #:    22  of    32 on this pool
     total cpu time spent up to now is        3.8 secs

     Computing kpt #:    23  of    32 on this pool
     total cpu time spent up to now is        4.0 secs

     Computing kpt #:    24  of    32 on this pool
     total cpu time spent up to now is        4.1 secs

     Computing kpt #:    25  of    32 on this pool
     total cpu time spent up to now is        4.2 secs

     Computing kpt #:    26  of    32 on this pool
     total cpu time spent up to now is        4.4 secs

     Computing kpt #:    27  of    32 on this pool
     total cpu time spent up to now is        4.5 secs

     Computing kpt #:    28  of    32 on this pool
     total cpu time spent up to now is        4.7 secs

     Computing kpt #:    29  of    32 on this pool
     total cpu time spent up to now is        4.8 secs

     Computing kpt #:    30  of    32 on this pool
     total cpu time spent up to now is        5.0 secs

     Computing kpt #:    31  of    32 on this pool
     total cpu time spent up to now is        5.1 secs

     Computing kpt #:    32  of    32 on this pool
     total cpu time spent up to now is        5.3 secs

     ethr =  2.17E-13,  avg # of iterations = 29.2

     total cpu time spent up to now is        5.3 secs

     End of band structure calculation

 ------ SPIN UP ------------


          k = 0.0000 0.0000 0.0000 (   811 PWs)   bands (ev):

   -81.4497 -77.9153 -45.6497 -44.3984 -44.3984 -41.6771 -41.2824 -41.2824
    -4.8596  -3.6580   5.9767   8.2673   8.2673   9.0605   9.6507   9.6507
    11.7545  11.7545  11.8241  13.3926  13.3926  13.6270  13.6270  16.6142
    18.3203  19.0344  19.0344  22.2935  24.6464  32.1031  32.1447  32.4680
    32.4680  36.4199  36.4199  38.0911  39.5362  40.5400  40.6719  40.6719

     occupation numbers 
     1.0000   1.0000   1.0000   1.0000   1.0000   1.0000   1.0000   1.0000
     1.0000   1.0000   1.0000   1.0000   1.0000   1.0000   1.0000   1.0000
     1.0000   1.0000   1.0000   1.0000   1.0000   1.0000   1.0000   0.0000
     0.0000   0.0000   0.0000   0.0000   0.0000   0.0000   0.0000   0.0000
     0.0000   0.0000   0.0000   0.0000   0.0000   0.0000   0.0000   0.0000

          k = 0.2669-0.0951-0.0951 (   815 PWs)   bands (ev):

   -81.4475 -77.9129 -45.6465 -44.4193 -44.4036 -41.6732 -41.3064 -41.2883
    -4.4918  -3.5335   6.5034   8.0064   8.3498   9.1350   9.2526   9.6753
    10.9142  11.6669  11.7991  12.3658  13.0662  13.5168  13.9155  17.2222
    18.6868  19.0384  19.6221  23.9126  24.4183  29.8338  30.4787  32.2098
    33.0433  33.8813  34.8782  36.9015  37.7150  40.4822  40.9041  42.2841

     occupation numbers 
     1.0000   1.0000   1.0000   1.0000   1.0000   1.0000   1.0000   1.0000
     1.0000   1.0000   1.0000   1.0000   1.0000   1.0000   1.0000   1.0000
     1.0000   1.0000   1.0000   1.0000   1.0000   1.0000   1.0000   0.0000
     0.0000   0.0000   0.0000   0.0000   0.0000   0.0000   0.0000   0.0000
     0.0000   0.0000   0.0000   0.0000   0.0000   0.0000   0.0000   0.0000

          k = 0.5338-0.1902-0.1902 (   827 PWs)   bands (ev):

   -81.4438 -77.9078 -45.6414 -44.4604 -44.4139 -41.6665 -41.3546 -41.3002
    -3.6813  -3.2277   6.9993   7.8075   8.1542   8.2968   9.2415   9.5009
    10.0890  11.3744  11.5212  12.2562  12.9785  13.1490  14.0194  18.0371
    18.8473  19.0821  21.6698  23.8540  25.8834  26.9503  27.4238  29.7590
    32.6451  33.1067  33.1929  34.9364  38.7159  41.0462  43.0504  43.1479

     occupation numbers 
     1.0000   1.0000   1.0000   1.0000   1.0000   1.0000   1.0000   1.0000
     1.0000   1.0000   1.0000   1.0000   1.0000   1.0000   1.0000   1.0000
     1.0000   1.0000   1.0000   1.0000   1.0000   1.0000   1.0000   0.0000
     0.0000   0.0000   0.0000   0.0000   0.0000   0.0000   0.0000   0.0000
     0.0000   0.0000   0.0000   0.0000   0.0000   0.0000   0.0000   0.0000

          k =-0.8008 0.2853 0.2853 (   810 PWs)   bands (ev):

   -81.4420 -77.9052 -45.6380 -44.4806 -44.4181 -41.6626 -41.3786 -41.3056
    -3.2610  -3.0034   6.8961   7.4278   7.6980   8.2083   8.7590   9.8924
    10.5995  11.0872  11.3358  12.1436  13.0757  13.5602  13.8131  18.5956
    19.0294  19.1222  23.2674  23.4170  24.3175  24.9499  28.3037  28.3276
    32.0158  32.4866  33.9497  34.0131  41.6907  41.8088  43.8085  44.0325

     occupation numbers 
     1.0000   1.0000   1.0000   1.0000   1.0000   1.0000   1.0000   1.0000
     1.0000   1.0000   1.0000   1.0000   1.0000   1.0000   1.0000   1.0000
     1.0000   1.0000   1.0000   1.0000   1.0000   1.0000   1.0000   0.0000
     0.0000   0.0000   0.0000   0.0000   0.0000   0.0000   0.0000   0.0000
     0.0000   0.0000   0.0000   0.0000   0.0000   0.0000   0.0000   0.0000

          k = 0.1718 0.1718-0.1902 (   811 PWs)   bands (ev):

   -81.4475 -77.9129 -45.6464 -44.4191 -44.4036 -41.6732 -41.3063 -41.2883
    -4.4662  -3.5675   6.5830   7.9694   8.3577   9.1019   9.3274   9.6739
    10.7113  11.7604  11.8706  12.3345  12.7320  13.5501  14.2441  17.2821
    18.8632  18.9487  19.4674  23.5172  24.8336  29.7801  30.1882  32.1978
    33.1176  34.6415  35.0386  36.6896  37.4489  39.1312  42.1857  42.2316

     occupation numbers 
     1.0000   1.0000   1.0000   1.0000   1.0000   1.0000   1.0000   1.0000
     1.0000   1.0000   1.0000   1.0000   1.0000   1.0000   1.0000   1.0000
     1.0000   1.0000   1.0000   1.0000   1.0000   1.0000   1.0000   0.0000
     0.0000   0.0000   0.0000   0.0000   0.0000   0.0000   0.0000   0.0000
     0.0000   0.0000   0.0000   0.0000   0.0000   0.0000   0.0000   0.0000

          k = 0.4387 0.0767-0.2853 (   821 PWs)   bands (ev):

   -81.4445 -77.9090 -45.6427 -44.4461 -44.4151 -41.6682 -41.3379 -41.3016
    -3.8558  -3.3612   7.1866   7.7681   8.1598   8.7425   8.8752   9.9825
    10.0821  10.9215  11.8634  12.4101  12.7810  13.2576  13.8481  17.8068
    18.8230  19.0729  21.2037  23.6574  26.4372  27.9994  28.4871  30.0478
    31.3359  31.5799  35.0319  37.1262  38.5562  38.9128  41.2832  44.9099

     occupation numbers 
     1.0000   1.0000   1.0000   1.0000   1.0000   1.0000   1.0000   1.0000
     1.0000   1.0000   1.0000   1.0000   1.0000   1.0000   1.0000   1.0000
     1.0000   1.0000   1.0000   1.0000   1.0000   1.0000   1.0000   0.0000
     0.0000   0.0000   0.0000   0.0000   0.0000   0.0000   0.0000   0.0000
     0.0000   0.0000   0.0000   0.0000   0.0000   0.0000   0.0000   0.0000

          k =-0.8959 0.5522 0.1902 (   832 PWs)   bands (ev):

   -81.4416 -77.9051 -45.6384 -44.4706 -44.4299 -41.6629 -41.3666 -41.3185
    -3.2497  -3.0314   7.1132   7.5518   7.8946   8.3070   8.8275   9.2025
    10.5375  10.9057  11.7555  12.5454  12.7175  13.2803  13.4032  18.5258
    18.9848  19.1778  23.2378  23.5993  25.5331  26.1514  27.6038  27.8449
    30.4064  31.2544  34.9904  36.2123  39.9130  40.5944  42.8983  43.8270

     occupation numbers 
     1.0000   1.0000   1.0000   1.0000   1.0000   1.0000   1.0000   1.0000
     1.0000   1.0000   1.0000   1.0000   1.0000   1.0000   1.0000   1.0000
     1.0000   1.0000   1.0000   1.0000   1.0000   1.0000   1.0000   0.0000
     0.0000   0.0000   0.0000   0.0000   0.0000   0.0000   0.0000   0.0000
     0.0000   0.0000   0.0000   0.0000   0.0000   0.0000   0.0000   0.0000

          k =-0.6289 0.4571 0.0951 (   831 PWs)   bands (ev):

   -81.4416 -77.9051 -45.6385 -44.4707 -44.4298 -41.6629 -41.3667 -41.3184
    -3.2221  -3.0629   7.0226   7.8161   7.8887   8.3510   8.6361   9.2536
    10.4398  10.9698  11.6776  12.3849  12.8189  13.1471  13.6179  18.4730
    18.9256  19.4250  22.6341  24.0135  25.6675  26.2839  27.5812  27.9770
    30.4406  30.7483  35.3146  36.0416  40.0320  40.3550  42.1096  43.9611

     occupation numbers 
     1.0000   1.0000   1.0000   1.0000   1.0000   1.0000   1.0000   1.0000
     1.0000   1.0000   1.0000   1.0000   1.0000   1.0000   1.0000   1.0000
     1.0000   1.0000   1.0000   1.0000   1.0000   1.0000   1.0000   0.0000
     0.0000   0.0000   0.0000   0.0000   0.0000   0.0000   0.0000   0.0000
     0.0000   0.0000   0.0000   0.0000   0.0000   0.0000   0.0000   0.0000

          k =-0.3620 0.3620-0.0000 (   815 PWs)   bands (ev):

   -81.4445 -77.9090 -45.6425 -44.4462 -44.4149 -41.6680 -41.3380 -41.3015
    -3.8909  -3.3218   7.1916   7.8079   8.1627   8.7448   8.9364   9.8717
     9.9450  10.9596  11.8086  12.6637  12.8565  13.0107  13.9513  17.7563
    18.8545  19.1990  20.9274  23.9586  26.1774  27.9824  28.5094  30.2492
    31.4384  31.8857  34.2757  37.8584  38.1823  38.4160  40.9185  44.8101

     occupation numbers 
     1.0000   1.0000   1.0000   1.0000   1.0000   1.0000   1.0000   1.0000
     1.0000   1.0000   1.0000   1.0000   1.0000   1.0000   1.0000   1.0000
     1.0000   1.0000   1.0000   1.0000   1.0000   1.0000   1.0000   0.0000
     0.0000   0.0000   0.0000   0.0000   0.0000   0.0000   0.0000   0.0000
     0.0000   0.0000   0.0000   0.0000   0.0000   0.0000   0.0000   0.0000

          k = 0.3436 0.3436-0.3804 (   827 PWs)   bands (ev):

   -81.4439 -77.9079 -45.6413 -44.4606 -44.4138 -41.6663 -41.3547 -41.3002
    -3.5557  -3.3695   7.3234   7.5104   7.9524   8.2621   9.2394   9.9844
    10.1168  10.8237  11.9502  12.2751  12.4225  13.3533  14.3237  18.0433
    19.1174  19.2280  20.7817  22.9876  27.0131  27.3813  27.5639  29.6795
    31.8499  33.0837  33.9482  36.0155  37.2442  41.3836  42.1515  42.8593

     occupation numbers 
     1.0000   1.0000   1.0000   1.0000   1.0000   1.0000   1.0000   1.0000
     1.0000   1.0000   1.0000   1.0000   1.0000   1.0000   1.0000   1.0000
     1.0000   1.0000   1.0000   1.0000   1.0000   1.0000   1.0000   0.0000
     0.0000   0.0000   0.0000   0.0000   0.0000   0.0000   0.0000   0.0000
     0.0000   0.0000   0.0000   0.0000   0.0000   0.0000   0.0000   0.0000

          k =-0.9910 0.8192 0.0951 (   834 PWs)   bands (ev):

   -81.4417 -77.9051 -45.6384 -44.4709 -44.4299 -41.6626 -41.3668 -41.3185
    -3.1779  -3.1100   6.9168   7.6922   7.9736   8.2637   8.5163   9.9317
    10.2535  10.9917  11.6340  12.1623  12.7180  13.2461  13.8695  18.5136
    19.0021  19.4434  21.8959  23.1535  26.2832  27.0338  27.6600  28.3793
    29.6227  31.3666  34.8869  37.4953  38.8855  41.4627  41.6614  42.6198

     occupation numbers 
     1.0000   1.0000   1.0000   1.0000   1.0000   1.0000   1.0000   1.0000
     1.0000   1.0000   1.0000   1.0000   1.0000   1.0000   1.0000   1.0000
     1.0000   1.0000   1.0000   1.0000   1.0000   1.0000   1.0000   0.0000
     0.0000   0.0000   0.0000   0.0000   0.0000   0.0000   0.0000   0.0000
     0.0000   0.0000   0.0000   0.0000   0.0000   0.0000   0.0000   0.0000

          k =-0.7241 0.7241 0.0000 (   831 PWs)   bands (ev):

   -81.4404 -77.9036 -45.6367 -44.4570 -44.4567 -41.6608 -41.3501 -41.3500
    -2.9800  -2.9796   7.4214   7.5669   7.7074   8.4222   8.4395   9.0867
    10.0361  11.2631  11.5284  12.6057  12.8979  13.0595  13.2588  18.7441
    19.1527  19.2520  23.8492  24.4327  25.2272  26.1442  26.3023  26.7403
    30.3761  31.0390  36.0234  37.2420  39.3900  40.2435  41.4776  41.8923

     occupation numbers 
     1.0000   1.0000   1.0000   1.0000   1.0000   1.0000   1.0000   1.0000
     1.0000   1.0000   1.0000   1.0000   1.0000   1.0000   1.0000   1.0000
     1.0000   1.0000   1.0000   1.0000   1.0000   1.0000   1.0000   0.0000
     0.0000   0.0000   0.0000   0.0000   0.0000   0.0000   0.0000   0.0000
     0.0000   0.0000   0.0000   0.0000   0.0000   0.0000   0.0000   0.0000

          k =-0.5155-0.5155 0.5706 (   824 PWs)   bands (ev):

   -81.4423 -77.9053 -45.6382 -44.4810 -44.4187 -41.6624 -41.3790 -41.3059
    -3.2642  -3.0058   6.3545   7.4556   8.1270   8.4796   8.5413  10.1859
    10.5913  10.7776  12.0231  12.1376  12.3987  13.2803  14.2609  18.6423
    19.3483  19.6216  20.4013  22.4620  25.9039  27.1050  28.3382  28.4446
    30.5156  32.4060  34.0246  37.2329  38.0675  39.8052  43.0674  43.8283

     occupation numbers 
     1.0000   1.0000   1.0000   1.0000   1.0000   1.0000   1.0000   1.0000
     1.0000   1.0000   1.0000   1.0000   1.0000   1.0000   1.0000   1.0000
     1.0000   1.0000   1.0000   1.0000   1.0000   1.0000   1.0000   0.0000
     0.0000   0.0000   0.0000   0.0000   0.0000   0.0000   0.0000   0.0000
     0.0000   0.0000   0.0000   0.0000   0.0000   0.0000   0.0000   0.0000

          k = 0.0767 0.0767 0.0767 (   808 PWs)   bands (ev):

   -81.4497 -77.9152 -45.6494 -44.3984 -44.3984 -41.6769 -41.2824 -41.2824
    -4.7906  -3.7535   6.1532   8.2789   8.2789   9.0391   9.6561   9.6561
    11.4411  11.7176  11.7176  13.1402  13.1402  13.9341  13.9341  16.9800
    18.4300  18.9902  18.9902  22.0242  24.9053  30.1902  32.7018  32.7018
    34.1298  36.2004  36.2004  38.3208  39.0317  39.8533  39.8533  41.3043

     occupation numbers 
     1.0000   1.0000   1.0000   1.0000   1.0000   1.0000   1.0000   1.0000
     1.0000   1.0000   1.0000   1.0000   1.0000   1.0000   1.0000   1.0000
     1.0000   1.0000   1.0000   1.0000   1.0000   1.0000   1.0000   0.0000
     0.0000   0.0000   0.0000   0.0000   0.0000   0.0000   0.0000   0.0000
     0.0000   0.0000   0.0000   0.0000   0.0000   0.0000   0.0000   0.0000

          k = 0.3436-0.0184-0.0184 (   827 PWs)   bands (ev):

   -81.4476 -77.9128 -45.6468 -44.4194 -44.4037 -41.6735 -41.3065 -41.2885
    -4.4033  -3.6450   6.6626   7.8863   8.3532   9.1799   9.3566   9.6851
    10.7828  11.5596  11.7208  12.3727  13.4045  13.4168  13.5834  17.4065
    18.4040  19.0958  20.2046  23.0526  25.2655  29.6075  29.9511  32.4902
    32.9760  33.2686  34.6531  38.2179  38.9080  39.0494  41.8033  42.6262

     occupation numbers 
     1.0000   1.0000   1.0000   1.0000   1.0000   1.0000   1.0000   1.0000
     1.0000   1.0000   1.0000   1.0000   1.0000   1.0000   1.0000   1.0000
     1.0000   1.0000   1.0000   1.0000   1.0000   1.0000   1.0000   0.0000
     0.0000   0.0000   0.0000   0.0000   0.0000   0.0000   0.0000   0.0000
     0.0000   0.0000   0.0000   0.0000   0.0000   0.0000   0.0000   0.0000

          k =-0.9910 0.4571 0.4571 (   819 PWs)   bands (ev):

   -81.4438 -77.9077 -45.6411 -44.4601 -44.4137 -41.6663 -41.3545 -41.3000
    -3.6637  -3.2430   6.8967   7.6802   8.1007   8.2884   9.5445   9.5824
    10.1131  11.5133  11.7499  12.1600  12.6005  13.5204  13.5802  18.1596
    18.5352  19.1877  22.2642  23.1918  26.4124  26.8556  27.5015  29.4046
    32.1866  32.3401  33.4545  36.2856  40.5171  40.8480  41.3959  43.7558

     occupation numbers 
     1.0000   1.0000   1.0000   1.0000   1.0000   1.0000   1.0000   1.0000
     1.0000   1.0000   1.0000   1.0000   1.0000   1.0000   1.0000   1.0000
     1.0000   1.0000   1.0000   1.0000   1.0000   1.0000   1.0000   0.0000
     0.0000   0.0000   0.0000   0.0000   0.0000   0.0000   0.0000   0.0000
     0.0000   0.0000   0.0000   0.0000   0.0000   0.0000   0.0000   0.0000

          k =-0.7241 0.3620 0.3620 (   826 PWs)   bands (ev):

   -81.4421 -77.9052 -45.6384 -44.4810 -44.4184 -41.6628 -41.3790 -41.3058
    -3.2618  -3.0041   6.7319   7.3349   7.9903   8.1860   8.7812   9.8501
    10.5958  11.2172  11.2512  12.2143  13.1190  13.2000  14.0273  18.6116
    19.0989  19.1764  22.0944  23.4182  24.6714  25.7996  28.2839  28.3794
    31.3561  33.1164  33.1530  35.1891  39.4620  43.1161  43.7575  43.7781

     occupation numbers 
     1.0000   1.0000   1.0000   1.0000   1.0000   1.0000   1.0000   1.0000
     1.0000   1.0000   1.0000   1.0000   1.0000   1.0000   1.0000   1.0000
     1.0000   1.0000   1.0000   1.0000   1.0000   1.0000   1.0000   0.0000
     0.0000   0.0000   0.0000   0.0000   0.0000   0.0000   0.0000   0.0000
     0.0000   0.0000   0.0000   0.0000   0.0000   0.0000   0.0000   0.0000

          k =-0.4571 0.2669 0.2669 (   824 PWs)   bands (ev):

   -81.4438 -77.9079 -45.6412 -44.4605 -44.4138 -41.6663 -41.3547 -41.3002
    -3.6424  -3.2758   7.1866   7.7335   8.1018   8.2843   9.1683   9.5483
    10.0922  11.0970  11.6848  12.2379  12.7603  13.3223  14.2911  18.0084
    19.0465  19.1919  20.9829  23.5452  26.4278  27.0427  27.4579  30.0068
    32.2315  33.6077  33.9109  34.5022  37.2115  42.0711  42.2483  43.2491

     occupation numbers 
     1.0000   1.0000   1.0000   1.0000   1.0000   1.0000   1.0000   1.0000
     1.0000   1.0000   1.0000   1.0000   1.0000   1.0000   1.0000   1.0000
     1.0000   1.0000   1.0000   1.0000   1.0000   1.0000   1.0000   0.0000
     0.0000   0.0000   0.0000   0.0000   0.0000   0.0000   0.0000   0.0000
     0.0000   0.0000   0.0000   0.0000   0.0000   0.0000   0.0000   0.0000

          k = 0.2485 0.2485-0.1135 (   815 PWs)   bands (ev):

   -81.4475 -77.9129 -45.6467 -44.4190 -44.4033 -41.6735 -41.3062 -41.2881
    -4.3310  -3.7338   6.8637   7.7772   8.3693   9.1107   9.5804   9.6837
    10.3449  11.5115  11.8475  12.6293  12.6806  13.2791  14.3823  17.5166
    18.6584  18.9169  20.0294  22.7048  25.7364  28.8580  30.4504  31.3890
    33.4161  35.0476  35.6912  36.2061  37.8324  39.0173  42.2242  43.4087

     occupation numbers 
     1.0000   1.0000   1.0000   1.0000   1.0000   1.0000   1.0000   1.0000
     1.0000   1.0000   1.0000   1.0000   1.0000   1.0000   1.0000   1.0000
     1.0000   1.0000   1.0000   1.0000   1.0000   1.0000   1.0000   0.0000
     0.0000   0.0000   0.0000   0.0000   0.0000   0.0000   0.0000   0.0000
     0.0000   0.0000   0.0000   0.0000   0.0000   0.0000   0.0000   0.0000

          k =-1.0861 0.7241 0.3620 (   819 PWs)   bands (ev):

   -81.4445 -77.9090 -45.6425 -44.4460 -44.4152 -41.6681 -41.3378 -41.3017
    -3.7596  -3.4657   7.1762   7.7058   8.1551   8.7389   8.7666  10.1879
    10.4501  10.8486  11.6373  12.3681  12.8378  13.2204  13.7461  17.9627
    18.6227  19.0007  21.7721  23.0498  27.0271  28.0521  28.3709  29.2150
    31.2385  31.7514  35.7750  36.3716  39.4125  39.9626  42.1688  43.3369

     occupation numbers 
     1.0000   1.0000   1.0000   1.0000   1.0000   1.0000   1.0000   1.0000
     1.0000   1.0000   1.0000   1.0000   1.0000   1.0000   1.0000   1.0000
     1.0000   1.0000   1.0000   1.0000   1.0000   1.0000   1.0000   0.0000
     0.0000   0.0000   0.0000   0.0000   0.0000   0.0000   0.0000   0.0000
     0.0000   0.0000   0.0000   0.0000   0.0000   0.0000   0.0000   0.0000

          k =-0.8192 0.6289 0.2669 (   827 PWs)   bands (ev):

   -81.4416 -77.9051 -45.6382 -44.4705 -44.4296 -41.6626 -41.3665 -41.3184
    -3.2506  -3.0302   7.1743   7.3086   7.9322   8.2668   8.7965   9.4620
    10.5740  10.9217  11.7259  12.4935  12.7190  13.1560  13.6086  18.5817
    18.9910  19.1263  22.7875  23.2833  25.7276  26.5606  27.6546  27.9308
    30.2741  31.5595  34.7988  36.5508  39.9183  41.5260  42.6693  43.0447

     occupation numbers 
     1.0000   1.0000   1.0000   1.0000   1.0000   1.0000   1.0000   1.0000
     1.0000   1.0000   1.0000   1.0000   1.0000   1.0000   1.0000   1.0000
     1.0000   1.0000   1.0000   1.0000   1.0000   1.0000   1.0000   0.0000
     0.0000   0.0000   0.0000   0.0000   0.0000   0.0000   0.0000   0.0000
     0.0000   0.0000   0.0000   0.0000   0.0000   0.0000   0.0000   0.0000

          k =-0.5522 0.5338 0.1718 (   827 PWs)   bands (ev):

   -81.4417 -77.9051 -45.6382 -44.4707 -44.4296 -41.6626 -41.3667 -41.3184
    -3.1750  -3.1133   6.9496   7.7991   7.9831   8.3266   8.5115   9.5496
    10.3476  11.0040  11.6604  12.1713  12.8167  13.1735  13.8040  18.4715
    18.9436  19.5692  22.0372  23.6209  26.0697  26.7756  27.6045  28.2797
    29.9793  30.8039  35.5379  36.2204  39.5383  41.1056  41.4549  43.8873

     occupation numbers 
     1.0000   1.0000   1.0000   1.0000   1.0000   1.0000   1.0000   1.0000
     1.0000   1.0000   1.0000   1.0000   1.0000   1.0000   1.0000   1.0000
     1.0000   1.0000   1.0000   1.0000   1.0000   1.0000   1.0000   0.0000
     0.0000   0.0000   0.0000   0.0000   0.0000   0.0000   0.0000   0.0000
     0.0000   0.0000   0.0000   0.0000   0.0000   0.0000   0.0000   0.0000

          k =-0.6106-0.6106 0.8375 (   817 PWs)   bands (ev):

   -81.4438 -77.9078 -45.6409 -44.4602 -44.4136 -41.6661 -41.3545 -41.2999
    -3.4996  -3.4234   7.1633   7.4317   7.9613   8.2540   9.3845  10.1394
    10.3213  10.7947  11.9081  12.3746  12.5497  13.0329  14.1645  18.1308
    18.8463  19.2249  21.3189  22.6646  26.9618  27.5746  28.2748  28.7203
    31.7189  32.3612  34.0379  37.3364  39.0820  40.1310  40.7800  42.6881

     occupation numbers 
     1.0000   1.0000   1.0000   1.0000   1.0000   1.0000   1.0000   1.0000
     1.0000   1.0000   1.0000   1.0000   1.0000   1.0000   1.0000   1.0000
     1.0000   1.0000   1.0000   1.0000   1.0000   1.0000   1.0000   0.0000
     0.0000   0.0000   0.0000   0.0000   0.0000   0.0000   0.0000   0.0000
     0.0000   0.0000   0.0000   0.0000   0.0000   0.0000   0.0000   0.0000

          k =-0.3436-0.7057 0.7424 (   829 PWs)   bands (ev):

   -81.4417 -77.9051 -45.6382 -44.4707 -44.4297 -41.6625 -41.3666 -41.3184
    -3.2244  -3.0598   6.9910   7.4824   7.9556   8.2470   8.6421   9.8126
    10.4412  10.9903  11.6012  12.3793  12.6414  13.2133  13.8045  18.5680
    19.0042  19.2439  22.1875  23.0553  26.1313  26.9261  27.6877  28.1373
    29.9091  31.6938  34.5957  37.3399  39.5880  41.6450  42.0863  42.2122

     occupation numbers 
     1.0000   1.0000   1.0000   1.0000   1.0000   1.0000   1.0000   1.0000
     1.0000   1.0000   1.0000   1.0000   1.0000   1.0000   1.0000   1.0000
     1.0000   1.0000   1.0000   1.0000   1.0000   1.0000   1.0000   0.0000
     0.0000   0.0000   0.0000   0.0000   0.0000   0.0000   0.0000   0.0000
     0.0000   0.0000   0.0000   0.0000   0.0000   0.0000   0.0000   0.0000

          k =-0.0767-0.8008 0.6473 (   846 PWs)   bands (ev):

   -81.4405 -77.9037 -45.6371 -44.4572 -44.4572 -41.6610 -41.3504 -41.3504
    -2.9801  -2.9796   7.4494   7.5031   7.7493   8.3490   8.4992   9.0821
    10.0354  11.2611  11.5211  12.6802  12.7636  13.1805  13.1896  18.7441
    19.1599  19.2400  24.0376  24.1304  25.4758  25.8827  26.4460  26.7069
    30.4098  30.9771  36.5112  36.6015  39.8446  39.9998  41.6259  41.6791

     occupation numbers 
     1.0000   1.0000   1.0000   1.0000   1.0000   1.0000   1.0000   1.0000
     1.0000   1.0000   1.0000   1.0000   1.0000   1.0000   1.0000   1.0000
     1.0000   1.0000   1.0000   1.0000   1.0000   1.0000   1.0000   0.0000
     0.0000   0.0000   0.0000   0.0000   0.0000   0.0000   0.0000   0.0000
     0.0000   0.0000   0.0000   0.0000   0.0000   0.0000   0.0000   0.0000

          k =-0.4387-0.4387 0.6473 (   831 PWs)   bands (ev):

   -81.4422 -77.9053 -45.6385 -44.4812 -44.4186 -41.6628 -41.3791 -41.3059
    -3.2634  -3.0052   6.4638   7.3987   8.1461   8.2788   8.7251   9.9624
    10.5924  10.9999  11.5722  12.3423  12.6521  13.2218  14.2048  18.6334
    19.2913  19.3423  20.9933  22.7197  25.5593  26.7216  28.3102  28.4331
    30.7429  32.5830  33.7859  36.7296  37.8737  41.2698  43.3414  43.8052

     occupation numbers 
     1.0000   1.0000   1.0000   1.0000   1.0000   1.0000   1.0000   1.0000
     1.0000   1.0000   1.0000   1.0000   1.0000   1.0000   1.0000   1.0000
     1.0000   1.0000   1.0000   1.0000   1.0000   1.0000   1.0000   0.0000
     0.0000   0.0000   0.0000   0.0000   0.0000   0.0000   0.0000   0.0000
     0.0000   0.0000   0.0000   0.0000   0.0000   0.0000   0.0000   0.0000

          k = 0.1534 0.1534 0.1534 (   817 PWs)   bands (ev):

   -81.4498 -77.9151 -45.6493 -44.3983 -44.3983 -41.6771 -41.2823 -41.2823
    -4.5955  -4.0004   6.5630   8.3021   8.3021   8.9478   9.6656   9.6656
    10.7480  11.6401  11.6401  12.9280  12.9280  14.2609  14.2609  17.4448
    18.8969  18.8969  19.0311  21.2547  25.6510  28.4217  33.3662  33.3662
    35.4450  35.4450  36.0121  38.3024  39.1133  39.3700  39.3700  40.5390

     occupation numbers 
     1.0000   1.0000   1.0000   1.0000   1.0000   1.0000   1.0000   1.0000
     1.0000   1.0000   1.0000   1.0000   1.0000   1.0000   1.0000   1.0000
     1.0000   1.0000   1.0000   1.0000   1.0000   1.0000   1.0000   0.0000
     0.0000   0.0000   0.0000   0.0000   0.0000   0.0000   0.0000   0.0000
     0.0000   0.0000   0.0000   0.0000   0.0000   0.0000   0.0000   0.0000

          k =-1.1812 0.6289 0.6289 (   829 PWs)   bands (ev):

   -81.4476 -77.9128 -45.6468 -44.4195 -44.4037 -41.6737 -41.3065 -41.2884
    -4.2179  -3.8613   6.9882   7.6542   8.3648   9.1551   9.6279   9.6943
    10.4800  11.3111  11.6953  12.5204  13.0837  13.3154  13.9489  17.6873
    18.2138  19.0635  20.9855  22.0282  26.3283  28.1993  30.2206  31.9230
    33.4579  33.7558  34.3843  37.9946  39.6692  40.3955  40.9062  42.0952

     occupation numbers 
     1.0000   1.0000   1.0000   1.0000   1.0000   1.0000   1.0000   1.0000
     1.0000   1.0000   1.0000   1.0000   1.0000   1.0000   1.0000   1.0000
     1.0000   1.0000   1.0000   1.0000   1.0000   1.0000   1.0000   0.0000
     0.0000   0.0000   0.0000   0.0000   0.0000   0.0000   0.0000   0.0000
     0.0000   0.0000   0.0000   0.0000   0.0000   0.0000   0.0000   0.0000

          k =-0.9143 0.5338 0.5338 (   815 PWs)   bands (ev):

   -81.4438 -77.9078 -45.6409 -44.4600 -44.4136 -41.6661 -41.3543 -41.3000
    -3.5954  -3.3183   6.9518   7.5166   8.0370   8.2660   9.5264   9.9653
    10.1383  11.4440  11.6576  12.4260  12.5219  13.0411  13.8795  18.2570
    18.4743  19.2584  22.1974  22.5331  26.8501  27.3961  27.7055  28.9622
    31.9007  31.9428  33.8529  37.9226  39.3390  40.4590  41.4469  42.4725

     occupation numbers 
     1.0000   1.0000   1.0000   1.0000   1.0000   1.0000   1.0000   1.0000
     1.0000   1.0000   1.0000   1.0000   1.0000   1.0000   1.0000   1.0000
     1.0000   1.0000   1.0000   1.0000   1.0000   1.0000   1.0000   0.0000
     0.0000   0.0000   0.0000   0.0000   0.0000   0.0000   0.0000   0.0000
     0.0000   0.0000   0.0000   0.0000   0.0000   0.0000   0.0000   0.0000

          k =-0.7057-0.7057 1.1045 (   821 PWs)   bands (ev):

   -81.4476 -77.9128 -45.6465 -44.4194 -44.4035 -41.6734 -41.3064 -41.2883
    -4.1133  -3.9740   7.1796   7.5139   8.3723   9.1269   9.6938   9.9203
    10.0655  11.2754  11.7482  12.7806  12.8722  13.0706  14.2674  17.7226
    18.3461  18.9756  20.9633  21.8535  26.8450  27.5940  30.6721  31.0922
    33.7994  34.5755  34.6391  37.4705  38.0985  40.6237  41.9980  42.4315

     occupation numbers 
     1.0000   1.0000   1.0000   1.0000   1.0000   1.0000   1.0000   1.0000
     1.0000   1.0000   1.0000   1.0000   1.0000   1.0000   1.0000   1.0000
     1.0000   1.0000   1.0000   1.0000   1.0000   1.0000   1.0000   0.0000
     0.0000   0.0000   0.0000   0.0000   0.0000   0.0000   0.0000   0.0000
     0.0000   0.0000   0.0000   0.0000   0.0000   0.0000   0.0000   0.0000

          k =-0.4387-0.8008 1.0094 (   814 PWs)   bands (ev):

   -81.4445 -77.9090 -45.6423 -44.4458 -44.4151 -41.6680 -41.3376 -41.3016
    -3.6571  -3.5722   7.1710   7.6817   8.1524   8.7182   8.7388  10.2786
    10.7120  10.9616  11.2009  12.7031  12.7416  13.0093  13.7557  18.1096
    18.4500  18.9972  22.3439  22.4648  27.6643  27.8564  28.2552  28.6773
    31.4372  31.7347  35.9631  36.0263  40.6972  40.8202  41.8907  42.0528

     occupation numbers 
     1.0000   1.0000   1.0000   1.0000   1.0000   1.0000   1.0000   1.0000
     1.0000   1.0000   1.0000   1.0000   1.0000   1.0000   1.0000   1.0000
     1.0000   1.0000   1.0000   1.0000   1.0000   1.0000   1.0000   0.0000
     0.0000   0.0000   0.0000   0.0000   0.0000   0.0000   0.0000   0.0000
     0.0000   0.0000   0.0000   0.0000   0.0000   0.0000   0.0000   0.0000

          k =-0.2301-0.2301-0.2301 (   828 PWs)   bands (ev):

   -81.4498 -77.9150 -45.6495 -44.3984 -44.3984 -41.6774 -41.2824 -41.2824
    -4.3233  -4.2980   6.8203   8.3136   8.3136   8.8538   9.6697   9.6697
    10.4238  11.5997  11.5997  12.8527  12.8527  14.3900  14.3900  17.5492
    18.8507  18.8507  19.9926  20.2967  26.6455  27.0857  34.2673  34.2673
    34.4517  34.4517  37.2892  37.5150  39.5555  39.5555  39.8349  39.8349

     occupation numbers 
     1.0000   1.0000   1.0000   1.0000   1.0000   1.0000   1.0000   1.0000
     1.0000   1.0000   1.0000   1.0000   1.0000   1.0000   1.0000   1.0000
     1.0000   1.0000   1.0000   1.0000   1.0000   1.0000   1.0000   0.0000
     0.0000   0.0000   0.0000   0.0000   0.0000   0.0000   0.0000   0.0000
     0.0000   0.0000   0.0000   0.0000   0.0000   0.0000   0.0000   0.0000

 ------ SPIN DOWN ----------


          k = 0.0000 0.0000 0.0000 (   811 PWs)   bands (ev):

   -81.4497 -77.9153 -45.6496 -44.3985 -44.3985 -41.6770 -41.2824 -41.2824
    -4.8596  -3.6580   5.9767   8.2673   8.2673   9.0606   9.6506   9.6506
    11.7545  11.7545  11.8241  13.3926  13.3926  13.6271  13.6271  16.6142
    18.3203  19.0344  19.0344  22.2935  24.6464  32.1031  32.1447  32.4680
    32.4680  36.4199  36.4199  38.0912  39.5362  40.5400  40.6718  40.6718

     occupation numbers 
     1.0000   1.0000   1.0000   1.0000   1.0000   1.0000   1.0000   1.0000
     1.0000   1.0000   1.0000   1.0000   1.0000   1.0000   1.0000   1.0000
     1.0000   1.0000   1.0000   1.0000   1.0000   1.0000   1.0000   0.0000
     0.0000   0.0000   0.0000   0.0000   0.0000   0.0000   0.0000   0.0000
     0.0000   0.0000   0.0000   0.0000   0.0000   0.0000   0.0000   0.0000

          k = 0.2669-0.0951-0.0951 (   815 PWs)   bands (ev):

   -81.4476 -77.9129 -45.6465 -44.4193 -44.4037 -41.6732 -41.3064 -41.2883
    -4.4918  -3.5335   6.5034   8.0064   8.3498   9.1350   9.2526   9.6752
    10.9142  11.6669  11.7991  12.3658  13.0662  13.5168  13.9155  17.2222
    18.6869  19.0384  19.6221  23.9126  24.4183  29.8338  30.4787  32.2098
    33.0433  33.8813  34.8782  36.9015  37.7150  40.4822  40.9041  42.2841

     occupation numbers 
     1.0000   1.0000   1.0000   1.0000   1.0000   1.0000   1.0000   1.0000
     1.0000   1.0000   1.0000   1.0000   1.0000   1.0000   1.0000   1.0000
     1.0000   1.0000   1.0000   1.0000   1.0000   1.0000   1.0000   0.0000
     0.0000   0.0000   0.0000   0.0000   0.0000   0.0000   0.0000   0.0000
     0.0000   0.0000   0.0000   0.0000   0.0000   0.0000   0.0000   0.0000

          k = 0.5338-0.1902-0.1902 (   827 PWs)   bands (ev):

   -81.4438 -77.9078 -45.6413 -44.4604 -44.4139 -41.6665 -41.3546 -41.3002
    -3.6813  -3.2277   6.9993   7.8074   8.1542   8.2968   9.2415   9.5008
    10.0890  11.3744  11.5213  12.2563  12.9785  13.1490  14.0194  18.0371
    18.8473  19.0821  21.6698  23.8540  25.8834  26.9503  27.4238  29.7590
    32.6451  33.1067  33.1929  34.9364  38.7159  41.0462  43.0504  43.1479

     occupation numbers 
     1.0000   1.0000   1.0000   1.0000   1.0000   1.0000   1.0000   1.0000
     1.0000   1.0000   1.0000   1.0000   1.0000   1.0000   1.0000   1.0000
     1.0000   1.0000   1.0000   1.0000   1.0000   1.0000   1.0000   0.0000
     0.0000   0.0000   0.0000   0.0000   0.0000   0.0000   0.0000   0.0000
     0.0000   0.0000   0.0000   0.0000   0.0000   0.0000   0.0000   0.0000

          k =-0.8008 0.2853 0.2853 (   810 PWs)   bands (ev):

   -81.4420 -77.9052 -45.6379 -44.4807 -44.4182 -41.6626 -41.3786 -41.3055
    -3.2610  -3.0034   6.8961   7.4277   7.6980   8.2083   8.7590   9.8923
    10.5994  11.0873  11.3358  12.1436  13.0756  13.5601  13.8131  18.5956
    19.0294  19.1222  23.2674  23.4170  24.3174  24.9499  28.3037  28.3276
    32.0158  32.4866  33.9497  34.0131  41.6906  41.8088  43.8085  44.0325

     occupation numbers 
     1.0000   1.0000   1.0000   1.0000   1.0000   1.0000   1.0000   1.0000
     1.0000   1.0000   1.0000   1.0000   1.0000   1.0000   1.0000   1.0000
     1.0000   1.0000   1.0000   1.0000   1.0000   1.0000   1.0000   0.0000
     0.0000   0.0000   0.0000   0.0000   0.0000   0.0000   0.0000   0.0000
     0.0000   0.0000   0.0000   0.0000   0.0000   0.0000   0.0000   0.0000

          k = 0.1718 0.1718-0.1902 (   811 PWs)   bands (ev):

   -81.4476 -77.9129 -45.6464 -44.4192 -44.4036 -41.6732 -41.3063 -41.2882
    -4.4662  -3.5675   6.5830   7.9694   8.3577   9.1019   9.3274   9.6738
    10.7113  11.7604  11.8707  12.3345  12.7320  13.5501  14.2441  17.2821
    18.8632  18.9487  19.4674  23.5172  24.8336  29.7801  30.1882  32.1978
    33.1176  34.6415  35.0386  36.6896  37.4489  39.1312  42.1857  42.2315

     occupation numbers 
     1.0000   1.0000   1.0000   1.0000   1.0000   1.0000   1.0000   1.0000
     1.0000   1.0000   1.0000   1.0000   1.0000   1.0000   1.0000   1.0000
     1.0000   1.0000   1.0000   1.0000   1.0000   1.0000   1.0000   0.0000
     0.0000   0.0000   0.0000   0.0000   0.0000   0.0000   0.0000   0.0000
     0.0000   0.0000   0.0000   0.0000   0.0000   0.0000   0.0000   0.0000

          k = 0.4387 0.0767-0.2853 (   821 PWs)   bands (ev):

   -81.4445 -77.9090 -45.6426 -44.4461 -44.4152 -41.6682 -41.3378 -41.3016
    -3.8558  -3.3612   7.1866   7.7681   8.1598   8.7425   8.8752   9.9825
    10.0821  10.9215  11.8634  12.4101  12.7810  13.2576  13.8481  17.8068
    18.8230  19.0729  21.2037  23.6574  26.4372  27.9994  28.4871  30.0478
    31.3359  31.5799  35.0319  37.1262  38.5562  38.9128  41.2832  44.9099

     occupation numbers 
     1.0000   1.0000   1.0000   1.0000   1.0000   1.0000   1.0000   1.0000
     1.0000   1.0000   1.0000   1.0000   1.0000   1.0000   1.0000   1.0000
     1.0000   1.0000   1.0000   1.0000   1.0000   1.0000   1.0000   0.0000
     0.0000   0.0000   0.0000   0.0000   0.0000   0.0000   0.0000   0.0000
     0.0000   0.0000   0.0000   0.0000   0.0000   0.0000   0.0000   0.0000

          k =-0.8959 0.5522 0.1902 (   832 PWs)   bands (ev):

   -81.4416 -77.9050 -45.6384 -44.4706 -44.4299 -41.6629 -41.3665 -41.3185
    -3.2497  -3.0314   7.1132   7.5518   7.8946   8.3070   8.8275   9.2025
    10.5376  10.9056  11.7555  12.5454  12.7175  13.2803  13.4032  18.5258
    18.9848  19.1778  23.2378  23.5993  25.5331  26.1514  27.6038  27.8449
    30.4064  31.2544  34.9904  36.2123  39.9130  40.5944  42.8983  43.8270

     occupation numbers 
     1.0000   1.0000   1.0000   1.0000   1.0000   1.0000   1.0000   1.0000
     1.0000   1.0000   1.0000   1.0000   1.0000   1.0000   1.0000   1.0000
     1.0000   1.0000   1.0000   1.0000   1.0000   1.0000   1.0000   0.0000
     0.0000   0.0000   0.0000   0.0000   0.0000   0.0000   0.0000   0.0000
     0.0000   0.0000   0.0000   0.0000   0.0000   0.0000   0.0000   0.0000

          k =-0.6289 0.4571 0.0951 (   831 PWs)   bands (ev):

   -81.4417 -77.9050 -45.6384 -44.4708 -44.4298 -41.6629 -41.3666 -41.3184
    -3.2221  -3.0629   7.0226   7.8161   7.8887   8.3511   8.6361   9.2536
    10.4398  10.9698  11.6776  12.3849  12.8189  13.1471  13.6179  18.4730
    18.9256  19.4250  22.6341  24.0135  25.6674  26.2839  27.5812  27.9770
    30.4406  30.7483  35.3146  36.0416  40.0320  40.3550  42.1096  43.9611

     occupation numbers 
     1.0000   1.0000   1.0000   1.0000   1.0000   1.0000   1.0000   1.0000
     1.0000   1.0000   1.0000   1.0000   1.0000   1.0000   1.0000   1.0000
     1.0000   1.0000   1.0000   1.0000   1.0000   1.0000   1.0000   0.0000
     0.0000   0.0000   0.0000   0.0000   0.0000   0.0000   0.0000   0.0000
     0.0000   0.0000   0.0000   0.0000   0.0000   0.0000   0.0000   0.0000

          k =-0.3620 0.3620-0.0000 (   815 PWs)   bands (ev):

   -81.4445 -77.9090 -45.6424 -44.4462 -44.4150 -41.6680 -41.3379 -41.3014
    -3.8909  -3.3218   7.1916   7.8079   8.1627   8.7448   8.9364   9.8717
     9.9450  10.9596  11.8087  12.6637  12.8565  13.0108  13.9513  17.7563
    18.8545  19.1990  20.9274  23.9586  26.1774  27.9824  28.5094  30.2492
    31.4384  31.8857  34.2757  37.8584  38.1823  38.4160  40.9185  44.8101

     occupation numbers 
     1.0000   1.0000   1.0000   1.0000   1.0000   1.0000   1.0000   1.0000
     1.0000   1.0000   1.0000   1.0000   1.0000   1.0000   1.0000   1.0000
     1.0000   1.0000   1.0000   1.0000   1.0000   1.0000   1.0000   0.0000
     0.0000   0.0000   0.0000   0.0000   0.0000   0.0000   0.0000   0.0000
     0.0000   0.0000   0.0000   0.0000   0.0000   0.0000   0.0000   0.0000

          k = 0.3436 0.3436-0.3804 (   827 PWs)   bands (ev):

   -81.4439 -77.9079 -45.6413 -44.4606 -44.4139 -41.6663 -41.3547 -41.3002
    -3.5557  -3.3695   7.3234   7.5103   7.9524   8.2621   9.2394   9.9844
    10.1167  10.8237  11.9503  12.2751  12.4225  13.3533  14.3236  18.0433
    19.1174  19.2280  20.7817  22.9876  27.0131  27.3813  27.5639  29.6795
    31.8499  33.0837  33.9482  36.0155  37.2442  41.3836  42.1515  42.8593

     occupation numbers 
     1.0000   1.0000   1.0000   1.0000   1.0000   1.0000   1.0000   1.0000
     1.0000   1.0000   1.0000   1.0000   1.0000   1.0000   1.0000   1.0000
     1.0000   1.0000   1.0000   1.0000   1.0000   1.0000   1.0000   0.0000
     0.0000   0.0000   0.0000   0.0000   0.0000   0.0000   0.0000   0.0000
     0.0000   0.0000   0.0000   0.0000   0.0000   0.0000   0.0000   0.0000

          k =-0.9910 0.8192 0.0951 (   834 PWs)   bands (ev):

   -81.4417 -77.9051 -45.6383 -44.4709 -44.4299 -41.6626 -41.3667 -41.3185
    -3.1779  -3.1100   6.9168   7.6922   7.9736   8.2637   8.5163   9.9317
    10.2535  10.9917  11.6340  12.1624  12.7180  13.2461  13.8694  18.5136
    19.0021  19.4434  21.8959  23.1535  26.2832  27.0338  27.6600  28.3793
    29.6227  31.3666  34.8869  37.4953  38.8855  41.4627  41.6614  42.6198

     occupation numbers 
     1.0000   1.0000   1.0000   1.0000   1.0000   1.0000   1.0000   1.0000
     1.0000   1.0000   1.0000   1.0000   1.0000   1.0000   1.0000   1.0000
     1.0000   1.0000   1.0000   1.0000   1.0000   1.0000   1.0000   0.0000
     0.0000   0.0000   0.0000   0.0000   0.0000   0.0000   0.0000   0.0000
     0.0000   0.0000   0.0000   0.0000   0.0000   0.0000   0.0000   0.0000

          k =-0.7241 0.7241 0.0000 (   831 PWs)   bands (ev):

   -81.4405 -77.9036 -45.6367 -44.4570 -44.4568 -41.6608 -41.3501 -41.3500
    -2.9800  -2.9796   7.4214   7.5669   7.7074   8.4221   8.4395   9.0867
    10.0361  11.2630  11.5283  12.6057  12.8979  13.0595  13.2589  18.7441
    19.1527  19.2521  23.8492  24.4327  25.2272  26.1442  26.3023  26.7403
    30.3761  31.0390  36.0234  37.2420  39.3900  40.2435  41.4776  41.8923

     occupation numbers 
     1.0000   1.0000   1.0000   1.0000   1.0000   1.0000   1.0000   1.0000
     1.0000   1.0000   1.0000   1.0000   1.0000   1.0000   1.0000   1.0000
     1.0000   1.0000   1.0000   1.0000   1.0000   1.0000   1.0000   0.0000
     0.0000   0.0000   0.0000   0.0000   0.0000   0.0000   0.0000   0.0000
     0.0000   0.0000   0.0000   0.0000   0.0000   0.0000   0.0000   0.0000

          k =-0.5155-0.5155 0.5706 (   824 PWs)   bands (ev):

   -81.4423 -77.9053 -45.6382 -44.4811 -44.4187 -41.6624 -41.3790 -41.3059
    -3.2642  -3.0058   6.3545   7.4555   8.1271   8.4796   8.5413  10.1859
    10.5912  10.7776  12.0232  12.1376  12.3987  13.2803  14.2609  18.6423
    19.3483  19.6216  20.4013  22.4620  25.9039  27.1050  28.3382  28.4446
    30.5156  32.4060  34.0246  37.2329  38.0675  39.8052  43.0674  43.8283

     occupation numbers 
     1.0000   1.0000   1.0000   1.0000   1.0000   1.0000   1.0000   1.0000
     1.0000   1.0000   1.0000   1.0000   1.0000   1.0000   1.0000   1.0000
     1.0000   1.0000   1.0000   1.0000   1.0000   1.0000   1.0000   0.0000
     0.0000   0.0000   0.0000   0.0000   0.0000   0.0000   0.0000   0.0000
     0.0000   0.0000   0.0000   0.0000   0.0000   0.0000   0.0000   0.0000

          k = 0.0767 0.0767 0.0767 (   808 PWs)   bands (ev):

   -81.4498 -77.9152 -45.6493 -44.3985 -44.3985 -41.6769 -41.2824 -41.2824
    -4.7906  -3.7535   6.1532   8.2789   8.2789   9.0391   9.6561   9.6561
    11.4411  11.7176  11.7176  13.1402  13.1402  13.9341  13.9341  16.9800
    18.4300  18.9902  18.9902  22.0242  24.9053  30.1902  32.7018  32.7018
    34.1298  36.2004  36.2004  38.3208  39.0317  39.8533  39.8533  41.3042

     occupation numbers 
     1.0000   1.0000   1.0000   1.0000   1.0000   1.0000   1.0000   1.0000
     1.0000   1.0000   1.0000   1.0000   1.0000   1.0000   1.0000   1.0000
     1.0000   1.0000   1.0000   1.0000   1.0000   1.0000   1.0000   0.0000
     0.0000   0.0000   0.0000   0.0000   0.0000   0.0000   0.0000   0.0000
     0.0000   0.0000   0.0000   0.0000   0.0000   0.0000   0.0000   0.0000

          k = 0.3436-0.0184-0.0184 (   827 PWs)   bands (ev):

   -81.4476 -77.9128 -45.6468 -44.4195 -44.4038 -41.6735 -41.3065 -41.2884
    -4.4033  -3.6450   6.6626   7.8863   8.3532   9.1799   9.3566   9.6850
    10.7827  11.5596  11.7208  12.3727  13.4045  13.4168  13.5834  17.4065
    18.4040  19.0958  20.2046  23.0526  25.2655  29.6075  29.9511  32.4902
    32.9760  33.2686  34.6531  38.2179  38.9080  39.0494  41.8033  42.6262

     occupation numbers 
     1.0000   1.0000   1.0000   1.0000   1.0000   1.0000   1.0000   1.0000
     1.0000   1.0000   1.0000   1.0000   1.0000   1.0000   1.0000   1.0000
     1.0000   1.0000   1.0000   1.0000   1.0000   1.0000   1.0000   0.0000
     0.0000   0.0000   0.0000   0.0000   0.0000   0.0000   0.0000   0.0000
     0.0000   0.0000   0.0000   0.0000   0.0000   0.0000   0.0000   0.0000

          k =-0.9910 0.4571 0.4571 (   819 PWs)   bands (ev):

   -81.4438 -77.9077 -45.6410 -44.4601 -44.4138 -41.6663 -41.3545 -41.3000
    -3.6637  -3.2430   6.8967   7.6802   8.1007   8.2884   9.5445   9.5823
    10.1130  11.5134  11.7499  12.1600  12.6005  13.5204  13.5803  18.1596
    18.5352  19.1877  22.2642  23.1918  26.4124  26.8556  27.5015  29.4046
    32.1866  32.3400  33.4545  36.2856  40.5171  40.8480  41.3959  43.7558

     occupation numbers 
     1.0000   1.0000   1.0000   1.0000   1.0000   1.0000   1.0000   1.0000
     1.0000   1.0000   1.0000   1.0000   1.0000   1.0000   1.0000   1.0000
     1.0000   1.0000   1.0000   1.0000   1.0000   1.0000   1.0000   0.0000
     0.0000   0.0000   0.0000   0.0000   0.0000   0.0000   0.0000   0.0000
     0.0000   0.0000   0.0000   0.0000   0.0000   0.0000   0.0000   0.0000

          k =-0.7241 0.3620 0.3620 (   826 PWs)   bands (ev):

   -81.4421 -77.9052 -45.6383 -44.4811 -44.4185 -41.6628 -41.3789 -41.3058
    -3.2618  -3.0041   6.7319   7.3349   7.9903   8.1860   8.7812   9.8501
    10.5957  11.2173  11.2512  12.2143  13.1190  13.2000  14.0273  18.6116
    19.0990  19.1764  22.0944  23.4182  24.6714  25.7997  28.2839  28.3794
    31.3561  33.1164  33.1530  35.1891  39.4620  43.1161  43.7575  43.7781

     occupation numbers 
     1.0000   1.0000   1.0000   1.0000   1.0000   1.0000   1.0000   1.0000
     1.0000   1.0000   1.0000   1.0000   1.0000   1.0000   1.0000   1.0000
     1.0000   1.0000   1.0000   1.0000   1.0000   1.0000   1.0000   0.0000
     0.0000   0.0000   0.0000   0.0000   0.0000   0.0000   0.0000   0.0000
     0.0000   0.0000   0.0000   0.0000   0.0000   0.0000   0.0000   0.0000

          k =-0.4571 0.2669 0.2669 (   824 PWs)   bands (ev):

   -81.4438 -77.9078 -45.6412 -44.4605 -44.4139 -41.6663 -41.3547 -41.3002
    -3.6424  -3.2758   7.1866   7.7334   8.1018   8.2843   9.1683   9.5482
    10.0921  11.0970  11.6849  12.2379  12.7603  13.3223  14.2911  18.0084
    19.0466  19.1919  20.9829  23.5452  26.4278  27.0427  27.4579  30.0068
    32.2315  33.6077  33.9109  34.5022  37.2115  42.0711  42.2483  43.2491

     occupation numbers 
     1.0000   1.0000   1.0000   1.0000   1.0000   1.0000   1.0000   1.0000
     1.0000   1.0000   1.0000   1.0000   1.0000   1.0000   1.0000   1.0000
     1.0000   1.0000   1.0000   1.0000   1.0000   1.0000   1.0000   0.0000
     0.0000   0.0000   0.0000   0.0000   0.0000   0.0000   0.0000   0.0000
     0.0000   0.0000   0.0000   0.0000   0.0000   0.0000   0.0000   0.0000

          k = 0.2485 0.2485-0.1135 (   815 PWs)   bands (ev):

   -81.4475 -77.9128 -45.6467 -44.4191 -44.4034 -41.6735 -41.3061 -41.2881
    -4.3310  -3.7338   6.8637   7.7772   8.3693   9.1107   9.5804   9.6837
    10.3448  11.5116  11.8475  12.6293  12.6805  13.2791  14.3823  17.5166
    18.6584  18.9170  20.0294  22.7048  25.7364  28.8580  30.4504  31.3890
    33.4161  35.0476  35.6912  36.2061  37.8324  39.0173  42.2242  43.4087

     occupation numbers 
     1.0000   1.0000   1.0000   1.0000   1.0000   1.0000   1.0000   1.0000
     1.0000   1.0000   1.0000   1.0000   1.0000   1.0000   1.0000   1.0000
     1.0000   1.0000   1.0000   1.0000   1.0000   1.0000   1.0000   0.0000
     0.0000   0.0000   0.0000   0.0000   0.0000   0.0000   0.0000   0.0000
     0.0000   0.0000   0.0000   0.0000   0.0000   0.0000   0.0000   0.0000

          k =-1.0861 0.7241 0.3620 (   819 PWs)   bands (ev):

   -81.4445 -77.9090 -45.6424 -44.4461 -44.4152 -41.6681 -41.3378 -41.3016
    -3.7596  -3.4657   7.1762   7.7058   8.1551   8.7389   8.7666  10.1878
    10.4501  10.8487  11.6373  12.3681  12.8378  13.2204  13.7460  17.9627
    18.6227  19.0007  21.7721  23.0498  27.0271  28.0521  28.3709  29.2150
    31.2385  31.7514  35.7750  36.3716  39.4125  39.9626  42.1688  43.3369

     occupation numbers 
     1.0000   1.0000   1.0000   1.0000   1.0000   1.0000   1.0000   1.0000
     1.0000   1.0000   1.0000   1.0000   1.0000   1.0000   1.0000   1.0000
     1.0000   1.0000   1.0000   1.0000   1.0000   1.0000   1.0000   0.0000
     0.0000   0.0000   0.0000   0.0000   0.0000   0.0000   0.0000   0.0000
     0.0000   0.0000   0.0000   0.0000   0.0000   0.0000   0.0000   0.0000

          k =-0.8192 0.6289 0.2669 (   827 PWs)   bands (ev):

   -81.4417 -77.9050 -45.6381 -44.4705 -44.4297 -41.6626 -41.3664 -41.3183
    -3.2506  -3.0302   7.1743   7.3086   7.9322   8.2668   8.7965   9.4620
    10.5740  10.9217  11.7259  12.4935  12.7190  13.1560  13.6086  18.5817
    18.9910  19.1263  22.7874  23.2833  25.7275  26.5606  27.6546  27.9308
    30.2741  31.5595  34.7988  36.5508  39.9183  41.5260  42.6693  43.0447

     occupation numbers 
     1.0000   1.0000   1.0000   1.0000   1.0000   1.0000   1.0000   1.0000
     1.0000   1.0000   1.0000   1.0000   1.0000   1.0000   1.0000   1.0000
     1.0000   1.0000   1.0000   1.0000   1.0000   1.0000   1.0000   0.0000
     0.0000   0.0000   0.0000   0.0000   0.0000   0.0000   0.0000   0.0000
     0.0000   0.0000   0.0000   0.0000   0.0000   0.0000   0.0000   0.0000

          k =-0.5522 0.5338 0.1718 (   827 PWs)   bands (ev):

   -81.4417 -77.9050 -45.6382 -44.4708 -44.4297 -41.6626 -41.3666 -41.3183
    -3.1750  -3.1133   6.9496   7.7991   7.9831   8.3266   8.5115   9.5496
    10.3476  11.0040  11.6604  12.1714  12.8168  13.1735  13.8040  18.4715
    18.9436  19.5692  22.0372  23.6209  26.0697  26.7756  27.6045  28.2797
    29.9793  30.8039  35.5379  36.2204  39.5383  41.1056  41.4549  43.8873

     occupation numbers 
     1.0000   1.0000   1.0000   1.0000   1.0000   1.0000   1.0000   1.0000
     1.0000   1.0000   1.0000   1.0000   1.0000   1.0000   1.0000   1.0000
     1.0000   1.0000   1.0000   1.0000   1.0000   1.0000   1.0000   0.0000
     0.0000   0.0000   0.0000   0.0000   0.0000   0.0000   0.0000   0.0000
     0.0000   0.0000   0.0000   0.0000   0.0000   0.0000   0.0000   0.0000

          k =-0.6106-0.6106 0.8375 (   817 PWs)   bands (ev):

   -81.4439 -77.9078 -45.6409 -44.4603 -44.4136 -41.6661 -41.3544 -41.2999
    -3.4996  -3.4234   7.1632   7.4317   7.9613   8.2540   9.3845  10.1393
    10.3213  10.7947  11.9082  12.3746  12.5497  13.0329  14.1644  18.1308
    18.8464  19.2250  21.3189  22.6646  26.9617  27.5746  28.2748  28.7203
    31.7189  32.3612  34.0379  37.3364  39.0820  40.1310  40.7800  42.6881

     occupation numbers 
     1.0000   1.0000   1.0000   1.0000   1.0000   1.0000   1.0000   1.0000
     1.0000   1.0000   1.0000   1.0000   1.0000   1.0000   1.0000   1.0000
     1.0000   1.0000   1.0000   1.0000   1.0000   1.0000   1.0000   0.0000
     0.0000   0.0000   0.0000   0.0000   0.0000   0.0000   0.0000   0.0000
     0.0000   0.0000   0.0000   0.0000   0.0000   0.0000   0.0000   0.0000

          k =-0.3436-0.7057 0.7424 (   829 PWs)   bands (ev):

   -81.4417 -77.9051 -45.6382 -44.4707 -44.4298 -41.6625 -41.3666 -41.3184
    -3.2244  -3.0598   6.9910   7.4824   7.9556   8.2470   8.6421   9.8126
    10.4412  10.9903  11.6012  12.3793  12.6414  13.2133  13.8044  18.5680
    19.0042  19.2439  22.1875  23.0553  26.1313  26.9261  27.6877  28.1373
    29.9091  31.6938  34.5957  37.3399  39.5880  41.6450  42.0863  42.2122

     occupation numbers 
     1.0000   1.0000   1.0000   1.0000   1.0000   1.0000   1.0000   1.0000
     1.0000   1.0000   1.0000   1.0000   1.0000   1.0000   1.0000   1.0000
     1.0000   1.0000   1.0000   1.0000   1.0000   1.0000   1.0000   0.0000
     0.0000   0.0000   0.0000   0.0000   0.0000   0.0000   0.0000   0.0000
     0.0000   0.0000   0.0000   0.0000   0.0000   0.0000   0.0000   0.0000

          k =-0.0767-0.8008 0.6473 (   846 PWs)   bands (ev):

   -81.4405 -77.9036 -45.6370 -44.4573 -44.4573 -41.6610 -41.3504 -41.3503
    -2.9801  -2.9796   7.4494   7.5031   7.7493   8.3490   8.4992   9.0821
    10.0355  11.2611  11.5211  12.6802  12.7636  13.1805  13.1896  18.7441
    19.1599  19.2400  24.0376  24.1303  25.4758  25.8827  26.4460  26.7069
    30.4098  30.9771  36.5112  36.6015  39.8446  39.9998  41.6259  41.6791

     occupation numbers 
     1.0000   1.0000   1.0000   1.0000   1.0000   1.0000   1.0000   1.0000
     1.0000   1.0000   1.0000   1.0000   1.0000   1.0000   1.0000   1.0000
     1.0000   1.0000   1.0000   1.0000   1.0000   1.0000   1.0000   0.0000
     0.0000   0.0000   0.0000   0.0000   0.0000   0.0000   0.0000   0.0000
     0.0000   0.0000   0.0000   0.0000   0.0000   0.0000   0.0000   0.0000

          k =-0.4387-0.4387 0.6473 (   831 PWs)   bands (ev):

   -81.4422 -77.9053 -45.6385 -44.4812 -44.4186 -41.6628 -41.3790 -41.3059
    -3.2634  -3.0052   6.4638   7.3987   8.1461   8.2788   8.7251   9.9624
    10.5923  10.9999  11.5723  12.3423  12.6521  13.2218  14.2047  18.6334
    19.2913  19.3423  20.9933  22.7197  25.5593  26.7216  28.3102  28.4331
    30.7429  32.5830  33.7859  36.7296  37.8737  41.2698  43.3414  43.8052

     occupation numbers 
     1.0000   1.0000   1.0000   1.0000   1.0000   1.0000   1.0000   1.0000
     1.0000   1.0000   1.0000   1.0000   1.0000   1.0000   1.0000   1.0000
     1.0000   1.0000   1.0000   1.0000   1.0000   1.0000   1.0000   0.0000
     0.0000   0.0000   0.0000   0.0000   0.0000   0.0000   0.0000   0.0000
     0.0000   0.0000   0.0000   0.0000   0.0000   0.0000   0.0000   0.0000

          k = 0.1534 0.1534 0.1534 (   817 PWs)   bands (ev):

   -81.4498 -77.9150 -45.6493 -44.3984 -44.3984 -41.6771 -41.2823 -41.2823
    -4.5955  -4.0004   6.5630   8.3021   8.3021   8.9478   9.6656   9.6656
    10.7480  11.6401  11.6401  12.9281  12.9281  14.2609  14.2609  17.4448
    18.8969  18.8969  19.0311  21.2547  25.6510  28.4217  33.3662  33.3662
    35.4450  35.4450  36.0121  38.3024  39.1133  39.3700  39.3700  40.5390

     occupation numbers 
     1.0000   1.0000   1.0000   1.0000   1.0000   1.0000   1.0000   1.0000
     1.0000   1.0000   1.0000   1.0000   1.0000   1.0000   1.0000   1.0000
     1.0000   1.0000   1.0000   1.0000   1.0000   1.0000   1.0000   0.0000
     0.0000   0.0000   0.0000   0.0000   0.0000   0.0000   0.0000   0.0000
     0.0000   0.0000   0.0000   0.0000   0.0000   0.0000   0.0000   0.0000

          k =-1.1812 0.6289 0.6289 (   829 PWs)   bands (ev):

   -81.4476 -77.9128 -45.6467 -44.4196 -44.4037 -41.6737 -41.3065 -41.2884
    -4.2179  -3.8613   6.9882   7.6542   8.3648   9.1551   9.6279   9.6943
    10.4800  11.3111  11.6953  12.5204  13.0837  13.3154  13.9489  17.6873
    18.2138  19.0635  20.9855  22.0282  26.3283  28.1993  30.2206  31.9230
    33.4579  33.7558  34.3843  37.9946  39.6692  40.3955  40.9062  42.0952

     occupation numbers 
     1.0000   1.0000   1.0000   1.0000   1.0000   1.0000   1.0000   1.0000
     1.0000   1.0000   1.0000   1.0000   1.0000   1.0000   1.0000   1.0000
     1.0000   1.0000   1.0000   1.0000   1.0000   1.0000   1.0000   0.0000
     0.0000   0.0000   0.0000   0.0000   0.0000   0.0000   0.0000   0.0000
     0.0000   0.0000   0.0000   0.0000   0.0000   0.0000   0.0000   0.0000

          k =-0.9143 0.5338 0.5338 (   815 PWs)   bands (ev):

   -81.4438 -77.9077 -45.6408 -44.4601 -44.4137 -41.6661 -41.3543 -41.2999
    -3.5954  -3.3183   6.9517   7.5166   8.0370   8.2660   9.5264   9.9653
    10.1383  11.4440  11.6576  12.4260  12.5219  13.0411  13.8794  18.2570
    18.4744  19.2584  22.1974  22.5331  26.8501  27.3961  27.7055  28.9622
    31.9007  31.9428  33.8529  37.9226  39.3390  40.4590  41.4469  42.4725

     occupation numbers 
     1.0000   1.0000   1.0000   1.0000   1.0000   1.0000   1.0000   1.0000
     1.0000   1.0000   1.0000   1.0000   1.0000   1.0000   1.0000   1.0000
     1.0000   1.0000   1.0000   1.0000   1.0000   1.0000   1.0000   0.0000
     0.0000   0.0000   0.0000   0.0000   0.0000   0.0000   0.0000   0.0000
     0.0000   0.0000   0.0000   0.0000   0.0000   0.0000   0.0000   0.0000

          k =-0.7057-0.7057 1.1045 (   821 PWs)   bands (ev):

   -81.4476 -77.9128 -45.6465 -44.4194 -44.4035 -41.6734 -41.3063 -41.2882
    -4.1133  -3.9740   7.1796   7.5139   8.3723   9.1269   9.6937   9.9202
    10.0655  11.2755  11.7482  12.7807  12.8722  13.0706  14.2674  17.7226
    18.3461  18.9757  20.9633  21.8535  26.8450  27.5940  30.6721  31.0922
    33.7994  34.5755  34.6391  37.4705  38.0985  40.6237  41.9979  42.4315

     occupation numbers 
     1.0000   1.0000   1.0000   1.0000   1.0000   1.0000   1.0000   1.0000
     1.0000   1.0000   1.0000   1.0000   1.0000   1.0000   1.0000   1.0000
     1.0000   1.0000   1.0000   1.0000   1.0000   1.0000   1.0000   0.0000
     0.0000   0.0000   0.0000   0.0000   0.0000   0.0000   0.0000   0.0000
     0.0000   0.0000   0.0000   0.0000   0.0000   0.0000   0.0000   0.0000

          k =-0.4387-0.8008 1.0094 (   814 PWs)   bands (ev):

   -81.4445 -77.9090 -45.6423 -44.4459 -44.4152 -41.6680 -41.3376 -41.3016
    -3.6571  -3.5722   7.1710   7.6817   8.1524   8.7182   8.7388  10.2785
    10.7120  10.9616  11.2009  12.7031  12.7416  13.0093  13.7557  18.1096
    18.4500  18.9972  22.3439  22.4648  27.6643  27.8564  28.2552  28.6773
    31.4372  31.7347  35.9631  36.0263  40.6972  40.8202  41.8907  42.0528

     occupation numbers 
     1.0000   1.0000   1.0000   1.0000   1.0000   1.0000   1.0000   1.0000
     1.0000   1.0000   1.0000   1.0000   1.0000   1.0000   1.0000   1.0000
     1.0000   1.0000   1.0000   1.0000   1.0000   1.0000   1.0000   0.0000
     0.0000   0.0000   0.0000   0.0000   0.0000   0.0000   0.0000   0.0000
     0.0000   0.0000   0.0000   0.0000   0.0000   0.0000   0.0000   0.0000

          k =-0.2301-0.2301-0.2301 (   828 PWs)   bands (ev):

   -81.4499 -77.9150 -45.6495 -44.3985 -44.3985 -41.6774 -41.2824 -41.2824
    -4.3233  -4.2980   6.8203   8.3136   8.3136   8.8538   9.6696   9.6696
    10.4238  11.5997  11.5997  12.8527  12.8527  14.3900  14.3900  17.5492
    18.8507  18.8507  19.9926  20.2967  26.6455  27.0857  34.2673  34.2673
    34.4517  34.4517  37.2892  37.5150  39.5554  39.5554  39.8350  39.8350

     occupation numbers 
     1.0000   1.0000   1.0000   1.0000   1.0000   1.0000   1.0000   1.0000
     1.0000   1.0000   1.0000   1.0000   1.0000   1.0000   1.0000   1.0000
     1.0000   1.0000   1.0000   1.0000   1.0000   1.0000   1.0000   0.0000
     0.0000   0.0000   0.0000   0.0000   0.0000   0.0000   0.0000   0.0000
     0.0000   0.0000   0.0000   0.0000   0.0000   0.0000   0.0000   0.0000

     the Fermi energy is    15.6239 ev
     (compare with:    15.6219 eV, computed in scf)

     Writing all to output data dir ./tmp/CoO.save/
 
     init_run     :      0.15s CPU      0.21s WALL (       1 calls)
     electrons    :      4.60s CPU      4.81s WALL (       1 calls)

     Called by init_run:
     wfcinit      :      0.02s CPU      0.03s WALL (       1 calls)
     wfcinit:atom :      0.00s CPU      0.00s WALL (      32 calls)
     wfcinit:wfcr :      0.17s CPU      0.18s WALL (      32 calls)
     potinit      :      0.04s CPU      0.05s WALL (       1 calls)
     hinit0       :      0.07s CPU      0.10s WALL (       1 calls)

     Called by electrons:
     c_bands      :      4.60s CPU      4.80s WALL (       1 calls)
     v_of_rho     :      0.01s CPU      0.02s WALL (       1 calls)
     v_h          :      0.00s CPU      0.00s WALL (       1 calls)
     v_xc         :      0.01s CPU      0.01s WALL (       1 calls)
     newd         :      0.00s CPU      0.01s WALL (       1 calls)
     PAW_pot      :      0.03s CPU      0.03s WALL (       1 calls)

     Called by c_bands:
     init_us_2    :      0.00s CPU      0.00s WALL (      64 calls)
     init_us_2:cp :      0.00s CPU      0.00s WALL (      64 calls)
     cegterg      :      4.33s CPU      4.41s WALL (      62 calls)

     Called by sum_band:

     Called by *egterg:
     cdiaghg      :      1.71s CPU      1.73s WALL (     961 calls)
     cegterg:over :      0.19s CPU      0.20s WALL (     929 calls)
     cegterg:upda :      0.03s CPU      0.03s WALL (     929 calls)
     cegterg:last :      0.08s CPU      0.08s WALL (     453 calls)
     h_psi        :      2.40s CPU      2.47s WALL (    1023 calls)
     s_psi        :      0.03s CPU      0.03s WALL (    1055 calls)
     g_psi        :      0.00s CPU      0.00s WALL (     929 calls)

     Called by h_psi:
     h_psi:calbec :      0.08s CPU      0.08s WALL (    1023 calls)
     vloc_psi     :      2.25s CPU      2.32s WALL (    1023 calls)
     add_vuspsi   :      0.03s CPU      0.03s WALL (    1023 calls)
     vhpsi        :      0.04s CPU      0.04s WALL (    1023 calls)

     General routines
     calbec       :      0.11s CPU      0.11s WALL (    2078 calls)
     fft          :      0.00s CPU      0.01s WALL (      23 calls)
     ffts         :      0.00s CPU      0.00s WALL (       2 calls)
     fftw         :      2.05s CPU      2.11s WALL (   40996 calls)
     interpolate  :      0.00s CPU      0.00s WALL (       2 calls)
     davcio       :      0.00s CPU      0.04s WALL (     128 calls)
 
     Parallel routines

     Hubbard U routines
     vhpsi        :      0.04s CPU      0.04s WALL (    1023 calls)

     PAW routines
     PAW_pot      :      0.03s CPU      0.03s WALL (       1 calls)
 
     PWSCF        :      5.02s CPU      5.42s WALL

 
   This run was terminated on:  13: 8:22  23Jun2024            

=------------------------------------------------------------------------------=
   JOB DONE.
=------------------------------------------------------------------------------=
