
     Program HP v.7.2 starts on 23Jun2024 at 13:32:16 

     This program is part of the open-source Quantum ESPRESSO suite
     for quantum simulation of materials; please cite
         "P. Giannozzi et al., J. Phys.:Condens. Matter 21 395502 (2009);
         "P. Giannozzi et al., J. Phys.:Condens. Matter 29 465901 (2017);
         "P. Giannozzi et al., J. Chem. Phys. 152 154105 (2020);
          URL http://www.quantum-espresso.org", 
     in publications or presentations arising from this work. More details at
     http://www.quantum-espresso.org/quote

     Parallel version (MPI), running on    32 processors

     MPI processes distributed on     1 nodes
     R & G space division:  proc/nbgrp/npool/nimage =      32
     238116 MiB available memory on the printing compute node when the environment starts
 

     =---------------------------------------------------------------------------=

           Calculation of Hubbard parameters using the HP code based on DFPT      

               Please cite the following papers when using this program:          

                 - HP code : Comput. Phys. Commun. 279, 108455 (2022).            

                 - Theory  : Phys. Rev. B 98,  085127 (2018) and                  

                             Phys. Rev. B 103, 045141 (2021).                     

     =-----------------------------------------------------------------------------=

     Reading xml data from directory:

     ./tmp/CoO.save/
     Message from routine volume:
     axis vectors are left-handed
     file O.pbesol-n-kjpaw_psl.0.1.UPF: wavefunction(s)  2P renormalized

     IMPORTANT: XC functional enforced from input :
     Exchange-correlation= PBESOL
                           (   1   4  10   8   0   0   0)
     Any further DFT definition will be discarded
     Please, verify this is what you really want

 
     Parallelization info
     --------------------
     sticks:   dense  smooth     PW     G-vecs:    dense   smooth      PW
     Min          36      18      6                  579      204      39
     Max          37      20      7                  582      205      41
     Sum        1167     587    195                18569     6541    1269
 
     Using Slab Decomposition
 

     Check: negative core charge=   -0.000041
     Reading collected, re-writing distributed wavefunctions
 

     bravais-lattice index     =             0
     lattice parameter (alat)  =        8.0000 (a.u.)
     unit-cell volume          =      235.7543 (a.u.)^3
     number of atoms/cell      =             4
     number of atomic types    =             3
     kinetic-energy cut-off    =         35.00 (Ry)
     charge density cut-off    =        280.00 (Ry)
     conv. thresh. for NSCF    =       1.0E-11
     conv. thresh. for chi     =       1.0E-06
     Input Hubbard parameters (in eV):
       U ( 1)                     =   1.00000E-04
       U ( 2)                     =   1.00000E-04

     celldm(1) =  8.00000  celldm(2) =  0.00000  celldm(3) =  0.00000
     celldm(4) =  0.00000  celldm(5) =  0.00000  celldm(6) =  0.00000

     crystal axes: (cart. coord. in units of alat)
               a(1) = (  0.5707  0.5707  1.0311 )  
               a(2) = (  0.5707  1.0311  0.5707 )  
               a(3) = (  1.0311  0.5707  0.5707 )  

     reciprocal axes: (cart. coord. in units 2 pi/alat)
               b(1) = ( -0.5706 -0.5706  1.6015 )  
               b(2) = ( -0.5706  1.6015 -0.5706 )  
               b(3) = (  1.6015 -0.5706 -0.5706 )  

     Atoms inside the unit cell (Cartesian axes):
     site n.  atom      mass           positions (alat units)
        1      Co1    58.9332   tau(  1) = (  0.00000  0.00000  0.00000  )
        2      Co2    58.9332   tau(  2) = (  1.08628  1.08628  1.08628  )
        3      O      15.9990   tau(  3) = (  0.54314  0.54314  0.54314  )
        4      O      15.9990   tau(  4) = (  1.62941  1.62941  1.62941  )

     Atom which will be perturbed:

        1      Co1    58.9332   tau( 1) = (  0.00000  0.00000  0.00000  )
 
     =====================================================================

                          PERTURBED ATOM #    1

     site n.  atom      mass           positions (alat units)
        1      Co1    58.9332   tau( 1) = (  0.00000  0.00000  0.00000  )
 
     =====================================================================

     The perturbed atom has a type which is unique!


     The grid of q-points ( 2, 2, 2)  (  4 q-points ) :
       N       xq(1)         xq(2)         xq(3)       wq
       1   0.000000000   0.000000000   0.000000000   0.125000000
       2  -0.800765314   0.285310577   0.285310577   0.375000000
       3  -0.515454737  -0.515454737   0.570621154   0.375000000
       4  -0.230144160  -0.230144160  -0.230144160   0.125000000


     =-------------------------------------------------------------=

     Calculation for q #   1 = (   0.0000000   0.0000000   0.0000000 )

     =-------------------------------------------------------------=

                   WRITING LINEAR-RESPONSE SUMMARY:


     Number of symmetries in the small group of q, nsymq = 12
      + the symmetry q -> -q+G 

     G cutoff =  453.9189  (    580 G-vectors)     FFT grid: ( 60, 60, 60)
     G cutoff =  226.9595  (    205 G-vectors)  smooth grid: ( 40, 40, 40)

     Number of k (and k+q if q/=0) points =    12  Marzari-Vanderbilt smearing, width (Ry) =  0.0200

                       cart. coord. (in units 2pi/alat)
        k (    1) = (   0.0000000   0.0000000   0.0000000), wk = 0.0370370
        k (    2) = (   0.5338435  -0.1902071  -0.1902071), wk = 0.2222222
        k (    3) = (   0.3436365   0.3436365  -0.3804141), wk = 0.2222222
        k (    4) = (  -0.7240506   0.7240506   0.0000000), wk = 0.2222222
        k (    5) = (   0.1534294   0.1534294   0.1534294), wk = 0.0740741
        k (    6) = (  -0.9142576   0.5338435   0.5338435), wk = 0.2222222
        k (    7) = (   0.0000000   0.0000000   0.0000000), wk = 0.0370370
        k (    8) = (   0.5338435  -0.1902071  -0.1902071), wk = 0.2222222
        k (    9) = (   0.3436365   0.3436365  -0.3804141), wk = 0.2222222
        k (   10) = (  -0.7240506   0.7240506   0.0000000), wk = 0.2222222
        k (   11) = (   0.1534294   0.1534294   0.1534294), wk = 0.0740741
        k (   12) = (  -0.9142576   0.5338435   0.5338435), wk = 0.2222222

                       cryst. coord.
        k (    1) = (   0.0000000   0.0000000   0.0000000), wk = 0.0370370
        k (    2) = (   0.0000000   0.0000000   0.3333333), wk = 0.2222222
        k (    3) = (   0.0000000   0.3333333   0.3333333), wk = 0.2222222
        k (    4) = (   0.0000000   0.3333333  -0.3333333), wk = 0.2222222
        k (    5) = (   0.3333333   0.3333333   0.3333333), wk = 0.0740741
        k (    6) = (   0.3333333   0.3333333  -0.3333333), wk = 0.2222222
        k (    7) = (   0.0000000   0.0000000   0.0000000), wk = 0.0370370
        k (    8) = (   0.0000000   0.0000000   0.3333333), wk = 0.2222222
        k (    9) = (   0.0000000   0.3333333   0.3333333), wk = 0.2222222
        k (   10) = (   0.0000000   0.3333333  -0.3333333), wk = 0.2222222
        k (   11) = (   0.3333333   0.3333333   0.3333333), wk = 0.0740741
        k (   12) = (   0.3333333   0.3333333  -0.3333333), wk = 0.2222222

     Atomic wfc used for the projector on the Hubbard manifold are orthogonalized

     Total time spent up to now is:
     HP           :      0.41s CPU      0.52s WALL

      =--------------------------------------------=
                 SOLVE THE LINEAR SYSTEM
      =--------------------------------------------=

      atom #  1   q point #   1   iter #   1
 
     Pert. #  1: Fermi energy shift (Ry) =     4.5007E-01     1.2085E-14
      chi:   1  -1.6978794542
      chi:   2   1.5275590579
      Average number of iter. to solve lin. system:   33.8
      Total CPU time :     2.2 s

      atom #  1   q point #   1   iter #   2
 
     Pert. #  1: Fermi energy shift (Ry) =     2.0378E-01     2.8522E-08
      chi:   1  29.8791681103   residue:   31.5770475646
      chi:   2 -29.8987102690   residue:   31.4262693269
      Average number of iter. to solve lin. system:   14.3
      Total CPU time :     3.1 s

      atom #  1   q point #   1   iter #   3
 
     Pert. #  1: Fermi energy shift (Ry) =     2.1217E-01    -2.4212E-11
      chi:   1  -0.1831763849   residue:   30.0623444952
      chi:   2   0.1582726434   residue:   30.0569829123
      Average number of iter. to solve lin. system:   11.2
      Total CPU time :     3.8 s

      atom #  1   q point #   1   iter #   4
 
     Pert. #  1: Fermi energy shift (Ry) =     3.6732E-01     7.4794E-12
      chi:   1  -0.1574481599   residue:    0.0257282250
      chi:   2   0.0348510817   residue:    0.1234215617
      Average number of iter. to solve lin. system:   13.6
      Total CPU time :     4.6 s

      atom #  1   q point #   1   iter #   5
 
     Pert. #  1: Fermi energy shift (Ry) =     3.0513E-01     1.0757E-11
      chi:   1  -0.1345643375   residue:    0.0228838224
      chi:   2   0.0504146556   residue:    0.0155635739
      Average number of iter. to solve lin. system:   13.8
      Total CPU time :     5.4 s

      atom #  1   q point #   1   iter #   6
 
     Pert. #  1: Fermi energy shift (Ry) =     3.0393E-01     1.2931E-14
      chi:   1  -0.1194248506   residue:    0.0151394869
      chi:   2   0.0351304479   residue:    0.0152842077
      Average number of iter. to solve lin. system:   11.6
      Total CPU time :     6.2 s

      atom #  1   q point #   1   iter #   7
 
     Pert. #  1: Fermi energy shift (Ry) =     3.0412E-01     1.3112E-14
      chi:   1  -0.1132681515   residue:    0.0061566991
      chi:   2   0.0287197369   residue:    0.0064107110
      Average number of iter. to solve lin. system:   12.0
      Total CPU time :     6.9 s

      atom #  1   q point #   1   iter #   8
 
     Pert. #  1: Fermi energy shift (Ry) =     3.0513E-01     1.3185E-14
      chi:   1  -0.1129430041   residue:    0.0003251474
      chi:   2   0.0279466152   residue:    0.0007731217
      Average number of iter. to solve lin. system:   12.6
      Total CPU time :     7.7 s

      atom #  1   q point #   1   iter #   9
 
     Pert. #  1: Fermi energy shift (Ry) =     3.0597E-01     1.3878E-14
      chi:   1  -0.1109079377   residue:    0.0020350664
      chi:   2   0.0255197297   residue:    0.0024268855
      Average number of iter. to solve lin. system:   13.2
      Total CPU time :     8.5 s

      atom #  1   q point #   1   iter #  10
 
     Pert. #  1: Fermi energy shift (Ry) =     3.0600E-01     1.5056E-14
      chi:   1  -0.1109967517   residue:    0.0000888139
      chi:   2   0.0256297588   residue:    0.0001100290
      Average number of iter. to solve lin. system:   14.9
      Total CPU time :     9.4 s

      atom #  1   q point #   1   iter #  11
 
     Pert. #  1: Fermi energy shift (Ry) =     3.0599E-01     1.1690E-14
      chi:   1  -0.1110015143   residue:    0.0000047627
      chi:   2   0.0256504381   residue:    0.0000206793
      Average number of iter. to solve lin. system:   15.1
      Total CPU time :    10.3 s

      atom #  1   q point #   1   iter #  12
 
     Pert. #  1: Fermi energy shift (Ry) =     3.0601E-01     1.6694E-14
      chi:   1  -0.1109934123   residue:    0.0000081021
      chi:   2   0.0256337753   residue:    0.0000166628
      Average number of iter. to solve lin. system:   15.5
      Total CPU time :    11.1 s

      atom #  1   q point #   1   iter #  13
 
     Pert. #  1: Fermi energy shift (Ry) =     3.0598E-01    -3.6081E-14
      chi:   1  -0.1109408559   residue:    0.0000525564
      chi:   2   0.0255942771   residue:    0.0000394982
      Average number of iter. to solve lin. system:   15.4
      Total CPU time :    12.1 s

      atom #  1   q point #   1   iter #  14
 
     Pert. #  1: Fermi energy shift (Ry) =     3.0599E-01     1.2881E-14
      chi:   1  -0.1109507747   residue:    0.0000099188
      chi:   2   0.0256034272   residue:    0.0000091501
      Average number of iter. to solve lin. system:   10.9
      Total CPU time :    12.8 s

      atom #  1   q point #   1   iter #  15
 
     Pert. #  1: Fermi energy shift (Ry) =     3.0597E-01     1.2872E-14
      chi:   1  -0.1109350818   residue:    0.0000156928
      chi:   2   0.0255927212   residue:    0.0000107060
      Average number of iter. to solve lin. system:   13.2
      Total CPU time :    13.7 s

      atom #  1   q point #   1   iter #  16
 
     Pert. #  1: Fermi energy shift (Ry) =     3.0597E-01     1.2897E-14
      chi:   1  -0.1109559836   residue:    0.0000209017
      chi:   2   0.0256134776   residue:    0.0000207563
      Average number of iter. to solve lin. system:   11.7
      Total CPU time :    14.4 s

      atom #  1   q point #   1   iter #  17
 
     Pert. #  1: Fermi energy shift (Ry) =     3.0596E-01     1.2901E-14
      chi:   1  -0.1109626458   residue:    0.0000066623
      chi:   2   0.0256253281   residue:    0.0000118505
      Average number of iter. to solve lin. system:   13.3
      Total CPU time :    15.2 s

      atom #  1   q point #   1   iter #  18
 
     Pert. #  1: Fermi energy shift (Ry) =     3.0596E-01     1.2895E-14
      chi:   1  -0.1109595194   residue:    0.0000031264
      chi:   2   0.0256239238   residue:    0.0000014043
      Average number of iter. to solve lin. system:   13.1
      Total CPU time :    16.0 s

      atom #  1   q point #   1   iter #  19
 
     Pert. #  1: Fermi energy shift (Ry) =     3.0595E-01     1.3571E-14
      chi:   1  -0.1109632967   residue:    0.0000037773
      chi:   2   0.0256313318   residue:    0.0000074080
      Average number of iter. to solve lin. system:   13.1
      Total CPU time :    16.8 s

      atom #  1   q point #   1   iter #  20
 
     Pert. #  1: Fermi energy shift (Ry) =     3.0594E-01     1.3632E-14
      chi:   1  -0.1109683049   residue:    0.0000050082
      chi:   2   0.0256372808   residue:    0.0000059489
      Average number of iter. to solve lin. system:   15.7
      Total CPU time :    17.7 s

      atom #  1   q point #   1   iter #  21
 
     Pert. #  1: Fermi energy shift (Ry) =     3.0594E-01     1.2869E-14
      chi:   1  -0.1109672241   residue:    0.0000010809
      chi:   2   0.0256362236   residue:    0.0000010572
      Average number of iter. to solve lin. system:   11.8
      Total CPU time :    18.4 s

      atom #  1   q point #   1   iter #  22
 
     Pert. #  1: Fermi energy shift (Ry) =     3.0594E-01     1.2874E-14
      chi:   1  -0.1109680439   residue:    0.0000008198
      chi:   2   0.0256368431   residue:    0.0000006196
      Average number of iter. to solve lin. system:   12.8
      Total CPU time :    19.2 s
      
      =--------------------------------------------=
             CONVERGENCE HAS BEEN REACHED
      =--------------------------------------------=


     =-------------------------------------------------------------=

     Calculation for q #   2 = (  -0.8007653   0.2853106   0.2853106 )

     =-------------------------------------------------------------=

     Performing NSCF calculation at all points k and k+q...
     Subspace diagonalization in iterative solution of the eigenvalue problem:
     a serial algorithm will be used

 
     Parallelization info
     --------------------
     sticks:   dense  smooth     PW     G-vecs:    dense   smooth      PW
     Min          36      18      7                  579      204      53
     Max          37      20      8                  582      205      55
     Sum        1167     587    243                18569     6541    1723
 
     Using Slab Decomposition
 


     bravais-lattice index     =            0
     lattice parameter (alat)  =       8.0000  a.u.
     unit-cell volume          =     235.7543 (a.u.)^3
     number of atoms/cell      =            4
     number of atomic types    =            3
     number of electrons       =        46.00
     number of Kohn-Sham states=           28
     kinetic-energy cutoff     =      35.0000  Ry
     charge density cutoff     =     280.0000  Ry
     Exchange-correlation= PBESOL
                           (   1   4  10   8   0   0   0)
     Hubbard projectors: ortho-atomic
     Hubbard parameters of DFT+U (Dudarev formulation) in eV:
     U(Co1-3d) =  0.0001
     U(Co2-3d) =  0.0001

     Internal variables: lda_plus_u = T, lda_plus_u_kind = 0

     celldm(1)=   8.000000  celldm(2)=   0.000000  celldm(3)=   0.000000
     celldm(4)=   0.000000  celldm(5)=   0.000000  celldm(6)=   0.000000

     crystal axes: (cart. coord. in units of alat)
               a(1) = (   0.570726   0.570726   1.031099 )  
               a(2) = (   0.570726   1.031099   0.570726 )  
               a(3) = (   1.031099   0.570726   0.570726 )  

     reciprocal axes: (cart. coord. in units 2 pi/alat)
               b(1) = ( -0.570621 -0.570621  1.601531 )  
               b(2) = ( -0.570621  1.601531 -0.570621 )  
               b(3) = (  1.601531 -0.570621 -0.570621 )  


     PseudoPot. # 1 for Co read from file:
     ./co_pbesol_v1.2.uspp.F.UPF
     MD5 check sum: 3b4cd4e7cc7df4da9fdede0fd33e2193
     Pseudo is Ultrasoft + core correction, Zval = 17.0
     Generated by new atomic code, or converted to UPF format
     Using radial grid of  863 points,  6 beta functions with: 
                l(1) =   0
                l(2) =   0
                l(3) =   1
                l(4) =   1
                l(5) =   2
                l(6) =   2
     Q(r) pseudized with  8 coefficients,  rinner =    1.200   1.200   1.200
                                                       1.200   1.200

     PseudoPot. # 2 for Co read from file:
     ./co_pbesol_v1.2.uspp.F.UPF
     MD5 check sum: 3b4cd4e7cc7df4da9fdede0fd33e2193
     Pseudo is Ultrasoft + core correction, Zval = 17.0
     Generated by new atomic code, or converted to UPF format
     Using radial grid of  863 points,  6 beta functions with: 
                l(1) =   0
                l(2) =   0
                l(3) =   1
                l(4) =   1
                l(5) =   2
                l(6) =   2
     Q(r) pseudized with  8 coefficients,  rinner =    1.200   1.200   1.200
                                                       1.200   1.200

     PseudoPot. # 3 for O  read from file:
     ./O.pbesol-n-kjpaw_psl.0.1.UPF
     MD5 check sum: 126339daddaa87477ab44acfa0b5aa00
     Pseudo is Projector augmented-wave + core cor, Zval =  6.0
     Generated using "atomic" code by A. Dal Corso  v.6.0 svn rev. 13079
     Shape of augmentation charge: BESSEL
     Using radial grid of 1095 points,  4 beta functions with: 
                l(1) =   0
                l(2) =   0
                l(3) =   1
                l(4) =   1
     Q(r) pseudized with 0 coefficients 


     atomic species   valence    mass     pseudopotential
        Co1           17.00    58.93319     Co( 1.00)
        Co2           17.00    58.93319     Co( 1.00)
        O              6.00    15.99900     O ( 1.00)

     Starting magnetic structure 
     atomic species   magnetization
        Co1          0.500
        Co2         -0.500
        O            0.000

     12 Sym. Ops., with inversion, found



   Cartesian axes

     site n.     atom                  positions (alat units)
         1           Co1 tau(   1) = (   0.0000000   0.0000000   0.0000000  )
         2           Co2 tau(   2) = (   1.0862757   1.0862757   1.0862757  )
         3           O   tau(   3) = (   0.5431378   0.5431378   0.5431378  )
         4           O   tau(   4) = (   1.6294135   1.6294135   1.6294135  )

     number of k points=    20  Marzari-Vanderbilt smearing, width (Ry)=  0.0200
                       cart. coord. in units 2pi/alat
        k(    1) = (   0.0000000   0.0000000   0.0000000), wk =   0.0370370
        k(    2) = (  -0.8007653   0.2853106   0.2853106), wk =   0.0000000
        k(    3) = (   0.5338435  -0.1902071  -0.1902071), wk =   0.0740741
        k(    4) = (  -0.2669218   0.0951035   0.0951035), wk =   0.0000000
        k(    5) = (   0.3436365   0.3436365  -0.3804141), wk =   0.1481481
        k(    6) = (  -0.4571288   0.6289471  -0.0951035), wk =   0.0000000
        k(    7) = (  -0.7240506   0.7240506   0.0000000), wk =   0.1481481
        k(    8) = (  -1.5248159   1.0093612   0.2853106), wk =   0.0000000
        k(    9) = (   0.1534294   0.1534294   0.1534294), wk =   0.0740741
        k(   10) = (  -0.6473359   0.4387400   0.4387400), wk =   0.0000000
        k(   11) = (  -0.9142576   0.5338435   0.5338435), wk =   0.0740741
        k(   12) = (  -1.7150230   0.8191541   0.8191541), wk =   0.0000000
        k(   13) = (  -0.1902071  -0.1902071   0.5338435), wk =   0.1481481
        k(   14) = (  -0.9909724   0.0951035   0.8191541), wk =   0.0000000
        k(   15) = (  -0.3804141   0.3436365   0.3436365), wk =   0.0740741
        k(   16) = (  -1.1811794   0.6289471   0.6289471), wk =   0.0000000
        k(   17) = (   0.0000000  -0.7240506   0.7240506), wk =   0.0740741
        k(   18) = (  -0.8007653  -0.4387400   1.0093612), wk =   0.0000000
        k(   19) = (   0.5338435   0.5338435  -0.9142576), wk =   0.1481481
        k(   20) = (  -0.2669218   0.8191541  -0.6289471), wk =   0.0000000

     Dense  grid:    18569 G-vectors     FFT dimensions: (  60,  60,  60)

     Smooth grid:     6541 G-vectors     FFT dimensions: (  40,  40,  40)

     Estimated max dynamical RAM per process >       6.73 MB

     Estimated total dynamical RAM >     215.23 MB

     Check: negative core charge=   -0.000041

     The potential is recalculated from file :
     ./tmp/HP/CoO.save/charge-density


     STARTING HUBBARD OCCUPATIONS:

     =================== HUBBARD OCCUPATIONS ===================
     ------------------------ ATOM    1 ------------------------
     Tr[ns(  1)] (up, down, total) =   4.86543  2.54827  7.41369
     Atomic magnetic moment for atom   1 =   2.31716
     SPIN  1
     eigenvalues:
       0.955  0.955  0.984  0.986  0.986
     eigenvectors (columns):
       0.710 -0.704  0.000  0.005  0.001
       0.001  0.004 -0.577  0.480 -0.660
      -0.004 -0.001 -0.577  0.332  0.746
      -0.704 -0.710 -0.000  0.001 -0.005
      -0.003  0.003  0.577  0.812  0.086
     occupation matrix ns (before diag.):
       0.955  0.000  0.000  0.000  0.000
       0.000  0.985 -0.001  0.000  0.001
       0.000 -0.001  0.985 -0.000  0.001
       0.000  0.000 -0.000  0.955 -0.000
       0.000  0.001  0.001 -0.000  0.985
     SPIN  2
     eigenvalues:
       0.260  0.260  0.607  0.710  0.710
     eigenvectors (columns):
      -0.682  0.731  0.000  0.009  0.001
      -0.002 -0.007 -0.577  0.509 -0.638
       0.007  0.002 -0.577  0.298  0.760
       0.731  0.682 -0.000  0.001 -0.009
       0.005 -0.006  0.577  0.807  0.122
     occupation matrix ns (before diag.):
       0.260  0.002  0.002  0.000  0.003
       0.002  0.676 -0.035  0.003  0.035
       0.002 -0.035  0.676 -0.003  0.035
       0.000  0.003 -0.003  0.260 -0.000
       0.003  0.035  0.035 -0.000  0.676
     ------------------------ ATOM    2 ------------------------
     Tr[ns(  2)] (up, down, total) =   2.54828  4.86543  7.41370
     Atomic magnetic moment for atom   2 =  -2.31715
     SPIN  1
     eigenvalues:
       0.260  0.260  0.607  0.710  0.710
     eigenvectors (columns):
      -0.696  0.718  0.000  0.009  0.001
      -0.002 -0.007 -0.577  0.488 -0.655
       0.007  0.002 -0.577  0.323  0.750
       0.718  0.696 -0.000  0.001 -0.009
       0.005 -0.006  0.577  0.811  0.095
     occupation matrix ns (before diag.):
       0.260  0.002  0.002  0.000  0.003
       0.002  0.676 -0.035  0.003  0.035
       0.002 -0.035  0.676 -0.003  0.035
       0.000  0.003 -0.003  0.260 -0.000
       0.003  0.035  0.035 -0.000  0.676
     SPIN  2
     eigenvalues:
       0.955  0.955  0.984  0.986  0.986
     eigenvectors (columns):
       0.693  0.721  0.000  0.005  0.001
       0.001 -0.004 -0.577  0.477 -0.662
      -0.004  0.001 -0.577  0.335  0.745
      -0.721  0.693 -0.000  0.001 -0.005
      -0.003 -0.003  0.577  0.812  0.082
     occupation matrix ns (before diag.):
       0.955  0.000  0.000  0.000  0.000
       0.000  0.985 -0.001  0.000  0.001
       0.000 -0.001  0.985 -0.000  0.001
       0.000  0.000 -0.000  0.955 -0.000
       0.000  0.001  0.001 -0.000  0.985

     Number of occupied Hubbard levels =   14.8274

     Atomic wfc used for Hubbard projectors are orthogonalized

     Starting wfcs are   34 atomic wfcs
     Checking if some PAW data can be deallocated... 

     Band Structure Calculation
     Davidson diagonalization with overlap

     ethr =  1.00E-11,  avg # of iterations = 14.2

     total cpu time spent up to now is       -1.0 secs

     End of band structure calculation

 ------ SPIN UP ------------


          k = 0.0000 0.0000 0.0000 (   811 PWs)   bands (ev):

   -80.9893 -77.9242 -44.4944 -44.3013 -44.3013 -41.4605 -41.4008 -41.4008
    -5.3266  -4.1849   6.3312  10.3034  10.3034  11.3305  12.1829  12.7793
    12.7793  12.8550  12.8550  13.6150  13.6150  14.7460  15.1270  15.1270
    17.2725  17.2725  17.3722  22.2027

          k =-0.8008 0.2853 0.2853 (   810 PWs)   bands (ev):

   -80.9801 -77.9138 -44.4817 -44.3835 -44.3211 -41.4970 -41.4455 -41.4239
    -3.6434  -3.6236   7.5971   7.7772   8.8366   9.2840  10.2733  10.9394
    12.2071  13.6745  13.9624  14.0535  14.6770  14.7876  16.0505  16.2193
    17.0034  17.0635  23.0743  23.1170

          k = 0.5338-0.1902-0.1902 (   827 PWs)   bands (ev):

   -80.9824 -77.9164 -44.4853 -44.3631 -44.3167 -41.4731 -41.4496 -41.4186
    -4.1753  -3.7300   8.0170   8.2875   8.7654   9.8139  10.3510  11.1507
    12.2844  13.5133  13.6654  14.1399  14.4828  14.5142  15.7762  15.8744
    16.8977  17.0600  21.2438  23.5493

          k =-0.2669 0.0951 0.0951 (   815 PWs)   bands (ev):

   -80.9870 -77.9216 -44.4909 -44.3219 -44.3064 -41.4565 -41.4249 -41.4067
    -4.9721  -4.0465   6.8997   9.7784  10.3288  10.3599  11.0391  11.8757
    12.3723  13.0940  13.2792  13.9782  14.1457  14.7983  15.2080  15.4110
    16.7125  17.1903  18.9659  23.7015

          k = 0.3436 0.3436-0.3804 (   827 PWs)   bands (ev):

   -80.9824 -77.9164 -44.4853 -44.3633 -44.3166 -41.4733 -41.4495 -41.4186
    -4.0801  -3.8345   8.0176   8.1854   9.1260   9.5472  10.3047  11.2364
    12.3178  13.4390  13.5374  14.3376  14.3729  14.5848  15.6656  15.8755
    17.1683  17.3734  20.4508  22.7944

          k =-0.4571 0.6289-0.0951 (   831 PWs)   bands (ev):

   -80.9801 -77.9138 -44.4822 -44.3735 -44.3321 -41.4851 -41.4459 -41.4367
    -3.7113  -3.5722   7.7809   8.4492   8.8586   9.2044   9.8899  10.0439
    12.8566  13.5095  13.8135  14.1324  14.4119  14.7745  15.6640  16.1708
    16.8078  17.6091  22.3698  23.8577

          k =-0.7241 0.7241 0.0000 (   831 PWs)   bands (ev):

   -80.9790 -77.9125 -44.4804 -44.3593 -44.3590 -41.4684 -41.4682 -41.4438
    -3.4793  -3.4792   8.2966   8.3452   8.8778   9.0013   9.2129   9.3935
    13.3495  13.4365  13.4780  14.2313  14.4711  15.4399  15.5671  15.8763
    17.1908  17.3020  23.8724  24.3333

          k =-1.5248 1.0094 0.2853 (   821 PWs)   bands (ev):

   -80.9835 -77.9177 -44.4868 -44.3488 -44.3176 -41.4565 -41.4514 -41.4199
    -4.3581  -3.8524   7.8458   8.7949   9.3262   9.8333  10.3450  10.8469
    12.6968  13.2474  13.5833  14.0066  14.3537  14.9867  15.1055  15.8649
    16.8304  17.1734  20.7256  23.3377

          k = 0.1534 0.1534 0.1534 (   817 PWs)   bands (ev):

   -80.9892 -77.9242 -44.4942 -44.3012 -44.3012 -41.4605 -41.4007 -41.4007
    -5.0737  -4.5077   7.2315   9.4146  10.5453  10.5453  11.8589  11.8589
    12.7912  12.8965  12.8965  14.5817  14.5817  14.8063  15.0894  15.0894
    16.9462  16.9462  18.6680  21.0055

          k =-0.6473 0.4387 0.4387 (   831 PWs)   bands (ev):

   -80.9801 -77.9138 -44.4823 -44.3841 -44.3215 -41.4975 -41.4459 -41.4243
    -3.6900  -3.5728   6.9790   8.0951   8.8154  10.0092  10.0243  11.4384
    11.8768  13.6685  13.7287  14.1809  14.1946  14.6351  16.0633  16.1947
    17.4133  17.6393  20.7866  22.7363

          k =-0.9143 0.5338 0.5338 (   815 PWs)   bands (ev):

   -80.9824 -77.9164 -44.4849 -44.3627 -44.3164 -41.4728 -41.4493 -41.4184
    -4.0551  -3.8558   7.6952   8.1490   9.0593  10.1552  10.4182  11.5797
    11.9647  13.5461  13.5714  13.9750  14.1075  14.6303  15.8203  15.8447
    16.7092  17.4376  21.8286  22.1791

          k =-1.7150 0.8192 0.8192 (   815 PWs)   bands (ev):

   -80.9870 -77.9216 -44.4913 -44.3216 -44.3061 -41.4569 -41.4247 -41.4065
    -4.8183  -4.2360   7.3936   9.3595  10.1217  10.6351  10.7584  11.3644
    12.6531  13.1438  13.1677  14.1101  14.5200  14.7535  15.2142  15.5403
    16.7747  16.8766  19.5255  22.3555

          k =-0.1902-0.1902 0.5338 (   827 PWs)   bands (ev):

   -80.9824 -77.9164 -44.4853 -44.3631 -44.3167 -41.4731 -41.4496 -41.4186
    -4.1753  -3.7300   8.0170   8.2875   8.7654   9.8139  10.3510  11.1507
    12.2844  13.5133  13.6654  14.1399  14.4828  14.5142  15.7762  15.8744
    16.8977  17.0600  21.2438  23.5493

          k =-0.9910 0.0951 0.8192 (   834 PWs)   bands (ev):

   -80.9801 -77.9138 -44.4821 -44.3736 -44.3322 -41.4851 -41.4457 -41.4367
    -3.6470  -3.6352   7.4842   8.3399   9.0393   9.5549   9.9092  10.1033
    12.7307  13.3783  13.7324  14.2404  14.3252  14.9502  15.6350  16.1810
    16.9731  17.6720  21.6597  23.0954

          k =-0.3804 0.3436 0.3436 (   827 PWs)   bands (ev):

   -80.9824 -77.9164 -44.4853 -44.3633 -44.3166 -41.4733 -41.4495 -41.4186
    -4.0801  -3.8345   8.0176   8.1854   9.1260   9.5472  10.3047  11.2364
    12.3178  13.4390  13.5374  14.3376  14.3729  14.5848  15.6656  15.8755
    17.1683  17.3734  20.4508  22.7944

          k =-1.1812 0.6289 0.6289 (   829 PWs)   bands (ev):

   -80.9870 -77.9216 -44.4913 -44.3221 -44.3065 -41.4570 -41.4251 -41.4068
    -4.7039  -4.3649   7.7390   8.7907  10.3271  10.4422  10.7499  11.7182
    12.5965  13.2697  13.4003  13.8791  14.0699  14.8612  15.3115  15.3651
    16.3058  17.2310  20.4700  21.6571

          k = 0.0000-0.7241 0.7241 (   831 PWs)   bands (ev):

   -80.9790 -77.9125 -44.4804 -44.3593 -44.3590 -41.4684 -41.4682 -41.4438
    -3.4793  -3.4792   8.2966   8.3452   8.8778   9.0013   9.2129   9.3935
    13.3495  13.4365  13.4780  14.2313  14.4711  15.4399  15.5671  15.8763
    17.1908  17.3020  23.8724  24.3333

          k =-0.8008-0.4387 1.0094 (   814 PWs)   bands (ev):

   -80.9835 -77.9177 -44.4864 -44.3486 -44.3176 -41.4562 -41.4512 -41.4199
    -4.1122  -4.1120   8.0777   8.2792   9.6964   9.9479  10.4497  10.6891
    12.8049  12.9294  13.6738  13.9247  14.3712  14.9869  15.1768  15.9620
    16.7633  16.9512  21.9045  22.0583

          k = 0.5338 0.5338-0.9143 (   815 PWs)   bands (ev):

   -80.9824 -77.9164 -44.4849 -44.3627 -44.3164 -41.4728 -41.4493 -41.4184
    -4.0551  -3.8558   7.6952   8.1490   9.0593  10.1552  10.4182  11.5797
    11.9647  13.5461  13.5714  13.9750  14.1075  14.6303  15.8203  15.8447
    16.7092  17.4376  21.8286  22.1791

          k =-0.2669 0.8192-0.6289 (   827 PWs)   bands (ev):

   -80.9801 -77.9138 -44.4820 -44.3732 -44.3320 -41.4848 -41.4457 -41.4366
    -3.7038  -3.5763   7.7031   8.0599   8.9712   9.5932   9.9322  10.1472
    12.7073  13.4440  13.7386  14.2689  14.3346  14.9474  15.7583  16.1753
    17.0676  17.1582  22.5660  23.0752

 ------ SPIN DOWN ----------


          k = 0.0000 0.0000 0.0000 (   811 PWs)   bands (ev):

   -80.9891 -77.9244 -44.4942 -44.3011 -44.3011 -41.4607 -41.4010 -41.4010
    -5.3266  -4.1849   6.3312  10.3034  10.3034  11.3305  12.1830  12.7793
    12.7793  12.8552  12.8552  13.6150  13.6150  14.7459  15.1268  15.1268
    17.2724  17.2724  17.3722  22.2027

          k =-0.8008 0.2853 0.2853 (   810 PWs)   bands (ev):

   -80.9799 -77.9140 -44.4815 -44.3833 -44.3209 -41.4972 -41.4457 -41.4241
    -3.6434  -3.6236   7.5972   7.7772   8.8367   9.2840  10.2734  10.9394
    12.2072  13.6747  13.9626  14.0533  14.6771  14.7877  16.0503  16.2191
    17.0032  17.0634  23.0743  23.1170

          k = 0.5338-0.1902-0.1902 (   827 PWs)   bands (ev):

   -80.9822 -77.9166 -44.4851 -44.3629 -44.3165 -41.4733 -41.4498 -41.4188
    -4.1753  -3.7300   8.0170   8.2875   8.7654   9.8139  10.3511  11.1507
    12.2845  13.5135  13.6655  14.1399  14.4828  14.5143  15.7760  15.8743
    16.8976  17.0599  21.2438  23.5492

          k =-0.2669 0.0951 0.0951 (   815 PWs)   bands (ev):

   -80.9868 -77.9218 -44.4907 -44.3217 -44.3062 -41.4567 -41.4251 -41.4069
    -4.9721  -4.0465   6.8997   9.7784  10.3288  10.3600  11.0391  11.8758
    12.3724  13.0942  13.2793  13.9783  14.1457  14.7982  15.2079  15.4108
    16.7124  17.1902  18.9659  23.7015

          k = 0.3436 0.3436-0.3804 (   827 PWs)   bands (ev):

   -80.9822 -77.9166 -44.4851 -44.3631 -44.3164 -41.4734 -41.4496 -41.4187
    -4.0801  -3.8345   8.0176   8.1854   9.1260   9.5472  10.3048  11.2364
    12.3180  13.4391  13.5376  14.3375  14.3730  14.5849  15.6654  15.8753
    17.1682  17.3733  20.4508  22.7944

          k =-0.4571 0.6289-0.0951 (   831 PWs)   bands (ev):

   -80.9799 -77.9140 -44.4820 -44.3733 -44.3319 -41.4853 -41.4461 -41.4369
    -3.7113  -3.5722   7.7810   8.4492   8.8586   9.2044   9.8899  10.0439
    12.8567  13.5097  13.8136  14.1325  14.4119  14.7744  15.6638  16.1706
    16.8076  17.6090  22.3698  23.8577

          k =-0.7241 0.7241 0.0000 (   831 PWs)   bands (ev):

   -80.9788 -77.9127 -44.4802 -44.3591 -44.3588 -41.4686 -41.4684 -41.4440
    -3.4793  -3.4792   8.2966   8.3452   8.8779   9.0013   9.2130   9.3935
    13.3496  13.4366  13.4782  14.2314  14.4712  15.4397  15.5669  15.8761
    17.1907  17.3019  23.8724  24.3333

          k =-1.5248 1.0094 0.2853 (   821 PWs)   bands (ev):

   -80.9833 -77.9179 -44.4866 -44.3486 -44.3174 -41.4567 -41.4516 -41.4201
    -4.3581  -3.8524   7.8458   8.7950   9.3263   9.8333  10.3450  10.8469
    12.6970  13.2475  13.5834  14.0067  14.3538  14.9865  15.1054  15.8647
    16.8303  17.1733  20.7256  23.3376

          k = 0.1534 0.1534 0.1534 (   817 PWs)   bands (ev):

   -80.9890 -77.9244 -44.4940 -44.3010 -44.3010 -41.4607 -41.4009 -41.4009
    -5.0737  -4.5077   7.2315   9.4146  10.5453  10.5453  11.8589  11.8589
    12.7913  12.8967  12.8967  14.5817  14.5817  14.8062  15.0892  15.0892
    16.9461  16.9461  18.6680  21.0055

          k =-0.6473 0.4387 0.4387 (   831 PWs)   bands (ev):

   -80.9799 -77.9140 -44.4821 -44.3839 -44.3213 -41.4977 -41.4461 -41.4245
    -3.6900  -3.5728   6.9791   8.0951   8.8155  10.0092  10.0243  11.4384
    11.8769  13.6686  13.7289  14.1809  14.1946  14.6352  16.0631  16.1945
    17.4132  17.6392  20.7866  22.7363

          k =-0.9143 0.5338 0.5338 (   815 PWs)   bands (ev):

   -80.9822 -77.9166 -44.4847 -44.3625 -44.3162 -41.4730 -41.4495 -41.4186
    -4.0551  -3.8558   7.6952   8.1491   9.0593  10.1552  10.4182  11.5798
    11.9648  13.5462  13.5716  13.9751  14.1076  14.6302  15.8202  15.8446
    16.7091  17.4375  21.8286  22.1791

          k =-1.7150 0.8192 0.8192 (   815 PWs)   bands (ev):

   -80.9867 -77.9218 -44.4911 -44.3214 -44.3059 -41.4571 -41.4249 -41.4067
    -4.8183  -4.2360   7.3937   9.3595  10.1217  10.6351  10.7584  11.3643
    12.6532  13.1439  13.1678  14.1102  14.5201  14.7534  15.2141  15.5402
    16.7746  16.8765  19.5255  22.3555

          k =-0.1902-0.1902 0.5338 (   827 PWs)   bands (ev):

   -80.9822 -77.9166 -44.4851 -44.3629 -44.3165 -41.4733 -41.4498 -41.4188
    -4.1753  -3.7300   8.0170   8.2875   8.7654   9.8139  10.3511  11.1507
    12.2845  13.5135  13.6655  14.1399  14.4828  14.5143  15.7760  15.8743
    16.8976  17.0599  21.2438  23.5492

          k =-0.9910 0.0951 0.8192 (   834 PWs)   bands (ev):

   -80.9799 -77.9140 -44.4819 -44.3734 -44.3320 -41.4853 -41.4459 -41.4369
    -3.6470  -3.6352   7.4842   8.3399   9.0394   9.5550   9.9092  10.1033
    12.7309  13.3784  13.7325  14.2405  14.3253  14.9502  15.6349  16.1809
    16.9730  17.6719  21.6597  23.0954

          k =-0.3804 0.3436 0.3436 (   827 PWs)   bands (ev):

   -80.9822 -77.9166 -44.4851 -44.3631 -44.3164 -41.4734 -41.4496 -41.4187
    -4.0801  -3.8345   8.0176   8.1854   9.1260   9.5472  10.3048  11.2364
    12.3180  13.4391  13.5376  14.3375  14.3730  14.5849  15.6654  15.8753
    17.1682  17.3733  20.4508  22.7944

          k =-1.1812 0.6289 0.6289 (   829 PWs)   bands (ev):

   -80.9868 -77.9218 -44.4911 -44.3219 -44.3063 -41.4572 -41.4253 -41.4070
    -4.7039  -4.3649   7.7390   8.7907  10.3271  10.4422  10.7499  11.7183
    12.5967  13.2698  13.4004  13.8792  14.0700  14.8611  15.3113  15.3650
    16.3057  17.2309  20.4700  21.6571

          k = 0.0000-0.7241 0.7241 (   831 PWs)   bands (ev):

   -80.9788 -77.9127 -44.4802 -44.3591 -44.3588 -41.4686 -41.4684 -41.4440
    -3.4793  -3.4792   8.2966   8.3452   8.8779   9.0013   9.2130   9.3935
    13.3496  13.4366  13.4782  14.2314  14.4712  15.4397  15.5669  15.8761
    17.1907  17.3019  23.8724  24.3333

          k =-0.8008-0.4387 1.0094 (   814 PWs)   bands (ev):

   -80.9833 -77.9179 -44.4862 -44.3484 -44.3174 -41.4564 -41.4513 -41.4200
    -4.1122  -4.1120   8.0778   8.2792   9.6964   9.9479  10.4497  10.6891
    12.8051  12.9295  13.6739  13.9248  14.3713  14.9868  15.1767  15.9619
    16.7632  16.9511  21.9045  22.0583

          k = 0.5338 0.5338-0.9143 (   815 PWs)   bands (ev):

   -80.9822 -77.9166 -44.4847 -44.3625 -44.3162 -41.4730 -41.4495 -41.4186
    -4.0551  -3.8558   7.6952   8.1491   9.0593  10.1552  10.4182  11.5798
    11.9648  13.5462  13.5716  13.9751  14.1076  14.6302  15.8202  15.8446
    16.7091  17.4375  21.8286  22.1791

          k =-0.2669 0.8192-0.6289 (   827 PWs)   bands (ev):

   -80.9799 -77.9140 -44.4818 -44.3730 -44.3318 -41.4850 -41.4459 -41.4368
    -3.7038  -3.5763   7.7031   8.0599   8.9712   9.5932   9.9322  10.1472
    12.7074  13.4441  13.7388  14.2689  14.3347  14.9474  15.7582  16.1752
    17.0675  17.1580  22.5660  23.0752

     the Fermi energy is    15.7920 ev
     (compare with:    15.7920 eV, computed in scf)

     Writing all to output data dir ./tmp/HP/CoO.save/
     Done!

                   WRITING LINEAR-RESPONSE SUMMARY:


     Number of symmetries in the small group of q, nsymq =  4
      + the symmetry q -> -q+G 

     G cutoff =  453.9189  (    580 G-vectors)     FFT grid: ( 60, 60, 60)
     G cutoff =  226.9595  (    205 G-vectors)  smooth grid: ( 40, 40, 40)

     Number of k (and k+q if q/=0) points =    40  Marzari-Vanderbilt smearing, width (Ry) =  0.0200

                       cart. coord. (in units 2pi/alat)
        k (    1) = (   0.0000000   0.0000000   0.0000000), wk = 0.0370370
        k (    2) = (  -0.8007653   0.2853106   0.2853106), wk = 0.0000000
        k (    3) = (   0.5338435  -0.1902071  -0.1902071), wk = 0.0740741
        k (    4) = (  -0.2669218   0.0951035   0.0951035), wk = 0.0000000
        k (    5) = (   0.3436365   0.3436365  -0.3804141), wk = 0.1481481
        k (    6) = (  -0.4571288   0.6289471  -0.0951035), wk = 0.0000000
        k (    7) = (  -0.7240506   0.7240506   0.0000000), wk = 0.1481481
        k (    8) = (  -1.5248159   1.0093612   0.2853106), wk = 0.0000000
        k (    9) = (   0.1534294   0.1534294   0.1534294), wk = 0.0740741
        k (   10) = (  -0.6473359   0.4387400   0.4387400), wk = 0.0000000
        k (   11) = (  -0.9142576   0.5338435   0.5338435), wk = 0.0740741
        k (   12) = (  -1.7150230   0.8191541   0.8191541), wk = 0.0000000
        k (   13) = (  -0.1902071  -0.1902071   0.5338435), wk = 0.1481481
        k (   14) = (  -0.9909724   0.0951035   0.8191541), wk = 0.0000000
        k (   15) = (  -0.3804141   0.3436365   0.3436365), wk = 0.0740741
        k (   16) = (  -1.1811794   0.6289471   0.6289471), wk = 0.0000000
        k (   17) = (   0.0000000  -0.7240506   0.7240506), wk = 0.0740741
        k (   18) = (  -0.8007653  -0.4387400   1.0093612), wk = 0.0000000
        k (   19) = (   0.5338435   0.5338435  -0.9142576), wk = 0.1481481
        k (   20) = (  -0.2669218   0.8191541  -0.6289471), wk = 0.0000000
        k (   21) = (   0.0000000   0.0000000   0.0000000), wk = 0.0370370
        k (   22) = (  -0.8007653   0.2853106   0.2853106), wk = 0.0000000
        k (   23) = (   0.5338435  -0.1902071  -0.1902071), wk = 0.0740741
        k (   24) = (  -0.2669218   0.0951035   0.0951035), wk = 0.0000000
        k (   25) = (   0.3436365   0.3436365  -0.3804141), wk = 0.1481481
        k (   26) = (  -0.4571288   0.6289471  -0.0951035), wk = 0.0000000
        k (   27) = (  -0.7240506   0.7240506   0.0000000), wk = 0.1481481
        k (   28) = (  -1.5248159   1.0093612   0.2853106), wk = 0.0000000
        k (   29) = (   0.1534294   0.1534294   0.1534294), wk = 0.0740741
        k (   30) = (  -0.6473359   0.4387400   0.4387400), wk = 0.0000000
        k (   31) = (  -0.9142576   0.5338435   0.5338435), wk = 0.0740741
        k (   32) = (  -1.7150230   0.8191541   0.8191541), wk = 0.0000000
        k (   33) = (  -0.1902071  -0.1902071   0.5338435), wk = 0.1481481
        k (   34) = (  -0.9909724   0.0951035   0.8191541), wk = 0.0000000
        k (   35) = (  -0.3804141   0.3436365   0.3436365), wk = 0.0740741
        k (   36) = (  -1.1811794   0.6289471   0.6289471), wk = 0.0000000
        k (   37) = (   0.0000000  -0.7240506   0.7240506), wk = 0.0740741
        k (   38) = (  -0.8007653  -0.4387400   1.0093612), wk = 0.0000000
        k (   39) = (   0.5338435   0.5338435  -0.9142576), wk = 0.1481481
        k (   40) = (  -0.2669218   0.8191541  -0.6289471), wk = 0.0000000

                       cryst. coord.
        k (    1) = (   0.0000000   0.0000000   0.0000000), wk = 0.0370370
        k (    2) = (  -0.0000000  -0.0000000  -0.5000000), wk = 0.0000000
        k (    3) = (   0.0000000   0.0000000   0.3333333), wk = 0.0740741
        k (    4) = (  -0.0000000  -0.0000000  -0.1666667), wk = 0.0000000
        k (    5) = (   0.0000000   0.3333333   0.3333333), wk = 0.1481481
        k (    6) = (   0.0000000   0.3333333  -0.1666667), wk = 0.0000000
        k (    7) = (   0.0000000   0.3333333  -0.3333333), wk = 0.1481481
        k (    8) = (   0.0000000   0.3333333  -0.8333333), wk = 0.0000000
        k (    9) = (   0.3333333   0.3333333   0.3333333), wk = 0.0740741
        k (   10) = (   0.3333333   0.3333333  -0.1666667), wk = 0.0000000
        k (   11) = (   0.3333333   0.3333333  -0.3333333), wk = 0.0740741
        k (   12) = (   0.3333333   0.3333333  -0.8333333), wk = 0.0000000
        k (   13) = (   0.3333333   0.0000000   0.0000000), wk = 0.1481481
        k (   14) = (   0.3333333   0.0000000  -0.5000000), wk = 0.0000000
        k (   15) = (   0.3333333   0.3333333   0.0000000), wk = 0.0740741
        k (   16) = (   0.3333333   0.3333333  -0.5000000), wk = 0.0000000
        k (   17) = (   0.3333333  -0.3333333   0.0000000), wk = 0.0740741
        k (   18) = (   0.3333333  -0.3333333  -0.5000000), wk = 0.0000000
        k (   19) = (  -0.3333333   0.3333333   0.3333333), wk = 0.1481481
        k (   20) = (  -0.3333333   0.3333333  -0.1666667), wk = 0.0000000
        k (   21) = (   0.0000000   0.0000000   0.0000000), wk = 0.0370370
        k (   22) = (  -0.0000000  -0.0000000  -0.5000000), wk = 0.0000000
        k (   23) = (   0.0000000   0.0000000   0.3333333), wk = 0.0740741
        k (   24) = (  -0.0000000  -0.0000000  -0.1666667), wk = 0.0000000
        k (   25) = (   0.0000000   0.3333333   0.3333333), wk = 0.1481481
        k (   26) = (   0.0000000   0.3333333  -0.1666667), wk = 0.0000000
        k (   27) = (   0.0000000   0.3333333  -0.3333333), wk = 0.1481481
        k (   28) = (   0.0000000   0.3333333  -0.8333333), wk = 0.0000000
        k (   29) = (   0.3333333   0.3333333   0.3333333), wk = 0.0740741
        k (   30) = (   0.3333333   0.3333333  -0.1666667), wk = 0.0000000
        k (   31) = (   0.3333333   0.3333333  -0.3333333), wk = 0.0740741
        k (   32) = (   0.3333333   0.3333333  -0.8333333), wk = 0.0000000
        k (   33) = (   0.3333333   0.0000000   0.0000000), wk = 0.1481481
        k (   34) = (   0.3333333   0.0000000  -0.5000000), wk = 0.0000000
        k (   35) = (   0.3333333   0.3333333   0.0000000), wk = 0.0740741
        k (   36) = (   0.3333333   0.3333333  -0.5000000), wk = 0.0000000
        k (   37) = (   0.3333333  -0.3333333   0.0000000), wk = 0.0740741
        k (   38) = (   0.3333333  -0.3333333  -0.5000000), wk = 0.0000000
        k (   39) = (  -0.3333333   0.3333333   0.3333333), wk = 0.1481481
        k (   40) = (  -0.3333333   0.3333333  -0.1666667), wk = 0.0000000

     Atomic wfc used for the projector on the Hubbard manifold are orthogonalized

     Total time spent up to now is:
     HP           :     21.11s CPU     21.99s WALL

      =--------------------------------------------=
                 SOLVE THE LINEAR SYSTEM
      =--------------------------------------------=

      atom #  1   q point #   2   iter #   1
      chi:   1  -2.0701405683
      chi:   2  -0.0000000000
      Average number of iter. to solve lin. system:   39.6
      Total CPU time :    24.6 s

      atom #  1   q point #   2   iter #   2
      chi:   1  19.2874731146   residue:   21.3576136829
      chi:   2  -0.0000000000   residue:    0.0000000000
      Average number of iter. to solve lin. system:   17.1
      Total CPU time :    26.0 s

      atom #  1   q point #   2   iter #   3
      chi:   1  -0.2480848063   residue:   19.5355579210
      chi:   2  -0.0000000000   residue:    0.0000000000
      Average number of iter. to solve lin. system:   12.3
      Total CPU time :    27.2 s

      atom #  1   q point #   2   iter #   4
      chi:   1  -0.2315474135   residue:    0.0165373928
      chi:   2  -0.0000000000   residue:    0.0000000000
      Average number of iter. to solve lin. system:   14.5
      Total CPU time :    28.4 s

      atom #  1   q point #   2   iter #   5
      chi:   1  -0.1874133384   residue:    0.0441340751
      chi:   2   0.0000000000   residue:    0.0000000000
      Average number of iter. to solve lin. system:   12.1
      Total CPU time :    29.5 s

      atom #  1   q point #   2   iter #   6
      chi:   1  -0.1460095710   residue:    0.0414037674
      chi:   2  -0.0000000000   residue:    0.0000000000
      Average number of iter. to solve lin. system:   13.7
      Total CPU time :    30.6 s

      atom #  1   q point #   2   iter #   7
      chi:   1  -0.1467784891   residue:    0.0007689181
      chi:   2   0.0000000000   residue:    0.0000000000
      Average number of iter. to solve lin. system:   14.6
      Total CPU time :    31.8 s

      atom #  1   q point #   2   iter #   8
      chi:   1  -0.1445264154   residue:    0.0022520737
      chi:   2   0.0000000000   residue:    0.0000000000
      Average number of iter. to solve lin. system:   15.2
      Total CPU time :    33.0 s

      atom #  1   q point #   2   iter #   9
      chi:   1  -0.1443753079   residue:    0.0001511075
      chi:   2   0.0000000000   residue:    0.0000000000
      Average number of iter. to solve lin. system:   15.9
      Total CPU time :    34.3 s

      atom #  1   q point #   2   iter #  10
      chi:   1  -0.1437567429   residue:    0.0006185650
      chi:   2  -0.0000000000   residue:    0.0000000000
      Average number of iter. to solve lin. system:   15.8
      Total CPU time :    35.5 s

      atom #  1   q point #   2   iter #  11
      chi:   1  -0.1438005013   residue:    0.0000437584
      chi:   2  -0.0000000000   residue:    0.0000000000
      Average number of iter. to solve lin. system:   15.5
      Total CPU time :    36.8 s

      atom #  1   q point #   2   iter #  12
      chi:   1  -0.1439210041   residue:    0.0001205027
      chi:   2  -0.0000000000   residue:    0.0000000000
      Average number of iter. to solve lin. system:   14.9
      Total CPU time :    38.0 s

      atom #  1   q point #   2   iter #  13
      chi:   1  -0.1439062924   residue:    0.0000147116
      chi:   2  -0.0000000000   residue:    0.0000000000
      Average number of iter. to solve lin. system:   15.9
      Total CPU time :    39.3 s

      atom #  1   q point #   2   iter #  14
      chi:   1  -0.1439299512   residue:    0.0000236588
      chi:   2  -0.0000000000   residue:    0.0000000000
      Average number of iter. to solve lin. system:   15.8
      Total CPU time :    40.6 s

      atom #  1   q point #   2   iter #  15
      chi:   1  -0.1439230297   residue:    0.0000069215
      chi:   2  -0.0000000000   residue:    0.0000000000
      Average number of iter. to solve lin. system:   17.5
      Total CPU time :    41.9 s

      atom #  1   q point #   2   iter #  16
      chi:   1  -0.1439237675   residue:    0.0000007378
      chi:   2  -0.0000000000   residue:    0.0000000000
      Average number of iter. to solve lin. system:   18.5
      Total CPU time :    43.3 s
      
      =--------------------------------------------=
             CONVERGENCE HAS BEEN REACHED
      =--------------------------------------------=


     =-------------------------------------------------------------=

     Calculation for q #   3 = (  -0.5154547  -0.5154547   0.5706212 )

     =-------------------------------------------------------------=

     Performing NSCF calculation at all points k and k+q...
 
     Parallelization info
     --------------------
     sticks:   dense  smooth     PW     G-vecs:    dense   smooth      PW
     Min          36      18      7                  579      204      47
     Max          37      20      8                  582      205      49
     Sum        1167     587    225                18569     6541    1535
 
     Using Slab Decomposition
 


     bravais-lattice index     =            0
     lattice parameter (alat)  =       8.0000  a.u.
     unit-cell volume          =     235.7543 (a.u.)^3
     number of atoms/cell      =            4
     number of atomic types    =            3
     number of electrons       =        46.00
     number of Kohn-Sham states=           28
     kinetic-energy cutoff     =      35.0000  Ry
     charge density cutoff     =     280.0000  Ry
     Exchange-correlation= PBESOL
                           (   1   4  10   8   0   0   0)
     Hubbard projectors: ortho-atomic
     Hubbard parameters of DFT+U (Dudarev formulation) in eV:
     U(Co1-3d) =  0.0001
     U(Co2-3d) =  0.0001

     Internal variables: lda_plus_u = T, lda_plus_u_kind = 0

     celldm(1)=   8.000000  celldm(2)=   0.000000  celldm(3)=   0.000000
     celldm(4)=   0.000000  celldm(5)=   0.000000  celldm(6)=   0.000000

     crystal axes: (cart. coord. in units of alat)
               a(1) = (   0.570726   0.570726   1.031099 )  
               a(2) = (   0.570726   1.031099   0.570726 )  
               a(3) = (   1.031099   0.570726   0.570726 )  

     reciprocal axes: (cart. coord. in units 2 pi/alat)
               b(1) = ( -0.570621 -0.570621  1.601531 )  
               b(2) = ( -0.570621  1.601531 -0.570621 )  
               b(3) = (  1.601531 -0.570621 -0.570621 )  


     PseudoPot. # 1 for Co read from file:
     ./co_pbesol_v1.2.uspp.F.UPF
     MD5 check sum: 3b4cd4e7cc7df4da9fdede0fd33e2193
     Pseudo is Ultrasoft + core correction, Zval = 17.0
     Generated by new atomic code, or converted to UPF format
     Using radial grid of  863 points,  6 beta functions with: 
                l(1) =   0
                l(2) =   0
                l(3) =   1
                l(4) =   1
                l(5) =   2
                l(6) =   2
     Q(r) pseudized with  8 coefficients,  rinner =    1.200   1.200   1.200
                                                       1.200   1.200

     PseudoPot. # 2 for Co read from file:
     ./co_pbesol_v1.2.uspp.F.UPF
     MD5 check sum: 3b4cd4e7cc7df4da9fdede0fd33e2193
     Pseudo is Ultrasoft + core correction, Zval = 17.0
     Generated by new atomic code, or converted to UPF format
     Using radial grid of  863 points,  6 beta functions with: 
                l(1) =   0
                l(2) =   0
                l(3) =   1
                l(4) =   1
                l(5) =   2
                l(6) =   2
     Q(r) pseudized with  8 coefficients,  rinner =    1.200   1.200   1.200
                                                       1.200   1.200

     PseudoPot. # 3 for O  read from file:
     ./O.pbesol-n-kjpaw_psl.0.1.UPF
     MD5 check sum: 126339daddaa87477ab44acfa0b5aa00
     Pseudo is Projector augmented-wave + core cor, Zval =  6.0
     Generated using "atomic" code by A. Dal Corso  v.6.0 svn rev. 13079
     Shape of augmentation charge: BESSEL
     Using radial grid of 1095 points,  4 beta functions with: 
                l(1) =   0
                l(2) =   0
                l(3) =   1
                l(4) =   1
     Q(r) pseudized with 0 coefficients 


     atomic species   valence    mass     pseudopotential
        Co1           17.00    58.93319     Co( 1.00)
        Co2           17.00    58.93319     Co( 1.00)
        O              6.00    15.99900     O ( 1.00)

     Starting magnetic structure 
     atomic species   magnetization
        Co1          0.500
        Co2         -0.500
        O            0.000

     12 Sym. Ops., with inversion, found



   Cartesian axes

     site n.     atom                  positions (alat units)
         1           Co1 tau(   1) = (   0.0000000   0.0000000   0.0000000  )
         2           Co2 tau(   2) = (   1.0862757   1.0862757   1.0862757  )
         3           O   tau(   3) = (   0.5431378   0.5431378   0.5431378  )
         4           O   tau(   4) = (   1.6294135   1.6294135   1.6294135  )

     number of k points=    20  Marzari-Vanderbilt smearing, width (Ry)=  0.0200
                       cart. coord. in units 2pi/alat
        k(    1) = (   0.0000000   0.0000000   0.0000000), wk =   0.0370370
        k(    2) = (  -0.5154547  -0.5154547   0.5706212), wk =   0.0000000
        k(    3) = (   0.5338435  -0.1902071  -0.1902071), wk =   0.1481481
        k(    4) = (   0.0183888  -0.7056618   0.3804141), wk =   0.0000000
        k(    5) = (   0.3436365   0.3436365  -0.3804141), wk =   0.0740741
        k(    6) = (  -0.1718182  -0.1718182   0.1902071), wk =   0.0000000
        k(    7) = (  -0.7240506   0.7240506   0.0000000), wk =   0.0740741
        k(    8) = (  -1.2395053   0.2085959   0.5706212), wk =   0.0000000
        k(    9) = (   0.1534294   0.1534294   0.1534294), wk =   0.0740741
        k(   10) = (  -0.3620253  -0.3620253   0.7240506), wk =   0.0000000
        k(   11) = (  -0.9142576   0.5338435   0.5338435), wk =   0.1481481
        k(   12) = (  -1.4297124   0.0183888   1.1044647), wk =   0.0000000
        k(   13) = (  -0.1902071  -0.1902071   0.5338435), wk =   0.0740741
        k(   14) = (  -0.7056618  -0.7056618   1.1044647), wk =   0.0000000
        k(   15) = (   0.3436365  -0.3804141   0.3436365), wk =   0.1481481
        k(   16) = (  -0.1718182  -0.8958688   0.9142576), wk =   0.0000000
        k(   17) = (   0.7240506   0.0000000  -0.7240506), wk =   0.1481481
        k(   18) = (   0.2085959  -0.5154547  -0.1534294), wk =   0.0000000
        k(   19) = (   0.5338435   0.5338435  -0.9142576), wk =   0.0740741
        k(   20) = (   0.0183888   0.0183888  -0.3436365), wk =   0.0000000

     Dense  grid:    18569 G-vectors     FFT dimensions: (  60,  60,  60)

     Smooth grid:     6541 G-vectors     FFT dimensions: (  40,  40,  40)

     Estimated max dynamical RAM per process >       6.73 MB

     Estimated total dynamical RAM >     215.45 MB

     Check: negative core charge=   -0.000041

     The potential is recalculated from file :
     ./tmp/HP/CoO.save/charge-density


     STARTING HUBBARD OCCUPATIONS:

     =================== HUBBARD OCCUPATIONS ===================
     ------------------------ ATOM    1 ------------------------
     Tr[ns(  1)] (up, down, total) =   4.86543  2.54827  7.41369
     Atomic magnetic moment for atom   1 =   2.31716
     SPIN  1
     eigenvalues:
       0.955  0.955  0.984  0.986  0.986
     eigenvectors (columns):
       0.710 -0.704  0.000  0.005  0.001
       0.001  0.004 -0.577  0.480 -0.660
      -0.004 -0.001 -0.577  0.332  0.746
      -0.704 -0.710 -0.000  0.001 -0.005
      -0.003  0.003  0.577  0.812  0.086
     occupation matrix ns (before diag.):
       0.955  0.000  0.000  0.000  0.000
       0.000  0.985 -0.001  0.000  0.001
       0.000 -0.001  0.985 -0.000  0.001
       0.000  0.000 -0.000  0.955 -0.000
       0.000  0.001  0.001 -0.000  0.985
     SPIN  2
     eigenvalues:
       0.260  0.260  0.607  0.710  0.710
     eigenvectors (columns):
      -0.682  0.731  0.000  0.009  0.001
      -0.002 -0.007 -0.577  0.509 -0.638
       0.007  0.002 -0.577  0.298  0.760
       0.731  0.682 -0.000  0.001 -0.009
       0.005 -0.006  0.577  0.807  0.122
     occupation matrix ns (before diag.):
       0.260  0.002  0.002  0.000  0.003
       0.002  0.676 -0.035  0.003  0.035
       0.002 -0.035  0.676 -0.003  0.035
       0.000  0.003 -0.003  0.260 -0.000
       0.003  0.035  0.035 -0.000  0.676
     ------------------------ ATOM    2 ------------------------
     Tr[ns(  2)] (up, down, total) =   2.54828  4.86543  7.41370
     Atomic magnetic moment for atom   2 =  -2.31715
     SPIN  1
     eigenvalues:
       0.260  0.260  0.607  0.710  0.710
     eigenvectors (columns):
      -0.696  0.718  0.000  0.009  0.001
      -0.002 -0.007 -0.577  0.488 -0.655
       0.007  0.002 -0.577  0.323  0.750
       0.718  0.696 -0.000  0.001 -0.009
       0.005 -0.006  0.577  0.811  0.095
     occupation matrix ns (before diag.):
       0.260  0.002  0.002  0.000  0.003
       0.002  0.676 -0.035  0.003  0.035
       0.002 -0.035  0.676 -0.003  0.035
       0.000  0.003 -0.003  0.260 -0.000
       0.003  0.035  0.035 -0.000  0.676
     SPIN  2
     eigenvalues:
       0.955  0.955  0.984  0.986  0.986
     eigenvectors (columns):
       0.693  0.721  0.000  0.005  0.001
       0.001 -0.004 -0.577  0.477 -0.662
      -0.004  0.001 -0.577  0.335  0.745
      -0.721  0.693 -0.000  0.001 -0.005
      -0.003 -0.003  0.577  0.812  0.082
     occupation matrix ns (before diag.):
       0.955  0.000  0.000  0.000  0.000
       0.000  0.985 -0.001  0.000  0.001
       0.000 -0.001  0.985 -0.000  0.001
       0.000  0.000 -0.000  0.955 -0.000
       0.000  0.001  0.001 -0.000  0.985

     Number of occupied Hubbard levels =   14.8274

     Atomic wfc used for Hubbard projectors are orthogonalized

     Starting wfcs are   34 atomic wfcs
     Checking if some PAW data can be deallocated... 

     Band Structure Calculation
     Davidson diagonalization with overlap

     ethr =  1.00E-11,  avg # of iterations = 13.9

     total cpu time spent up to now is       -1.0 secs

     End of band structure calculation

 ------ SPIN UP ------------


          k = 0.0000 0.0000 0.0000 (   811 PWs)   bands (ev):

   -80.9893 -77.9242 -44.4944 -44.3013 -44.3013 -41.4605 -41.4008 -41.4008
    -5.3266  -4.1849   6.3312  10.3034  10.3034  11.3305  12.1829  12.7793
    12.7793  12.8550  12.8550  13.6150  13.6150  14.7460  15.1270  15.1270
    17.2725  17.2725  17.3722  22.2027

          k =-0.5155-0.5155 0.5706 (   824 PWs)   bands (ev):

   -80.9801 -77.9138 -44.4819 -44.3840 -44.3216 -41.4974 -41.4456 -41.4243
    -3.6980  -3.5633   6.8659   8.1341   8.8068   9.9515  10.3342  11.5962
    11.7018  13.6642  13.6726  14.0071  14.1904  14.6433  16.0657  16.1830
    17.5288  17.9043  20.2991  22.4936

          k = 0.5338-0.1902-0.1902 (   827 PWs)   bands (ev):

   -80.9824 -77.9164 -44.4853 -44.3631 -44.3167 -41.4731 -41.4496 -41.4186
    -4.1753  -3.7300   8.0170   8.2875   8.7654   9.8139  10.3510  11.1507
    12.2844  13.5133  13.6654  14.1399  14.4828  14.5142  15.7762  15.8744
    16.8977  17.0600  21.2438  23.5493

          k = 0.0184-0.7057 0.3804 (   832 PWs)   bands (ev):

   -80.9801 -77.9138 -44.4822 -44.3733 -44.3323 -41.4849 -41.4459 -41.4368
    -3.7178  -3.5639   7.9343   8.0614   8.8866   9.4070   9.8885  10.0898
    12.8035  13.5092  13.7991  14.2014  14.3287  14.8741  15.7094  16.1745
    16.9430  17.2810  22.9317  23.4001

          k = 0.3436 0.3436-0.3804 (   827 PWs)   bands (ev):

   -80.9824 -77.9164 -44.4853 -44.3633 -44.3166 -41.4733 -41.4495 -41.4186
    -4.0801  -3.8345   8.0176   8.1854   9.1260   9.5472  10.3047  11.2364
    12.3178  13.4390  13.5374  14.3376  14.3729  14.5848  15.6656  15.8755
    17.1683  17.3734  20.4508  22.7944

          k =-0.1718-0.1718 0.1902 (   811 PWs)   bands (ev):

   -80.9870 -77.9216 -44.4909 -44.3218 -44.3063 -41.4565 -41.4248 -41.4066
    -4.9485  -4.0772   6.9827   9.7663  10.4240  10.4826  10.7133  11.6090
    12.4941  13.0613  13.1684  14.2395  14.3402  14.7376  15.2006  15.5020
    16.8782  16.9769  18.9054  23.2407

          k =-0.7241 0.7241 0.0000 (   831 PWs)   bands (ev):

   -80.9790 -77.9125 -44.4804 -44.3593 -44.3590 -41.4684 -41.4682 -41.4438
    -3.4793  -3.4792   8.2966   8.3452   8.8778   9.0013   9.2129   9.3935
    13.3495  13.4365  13.4780  14.2313  14.4711  15.4399  15.5671  15.8763
    17.1908  17.3020  23.8724  24.3333

          k =-1.2395 0.2086 0.5706 (   815 PWs)   bands (ev):

   -80.9835 -77.9177 -44.4865 -44.3490 -44.3174 -41.4566 -41.4512 -41.4197
    -4.3950  -3.8108   7.8137   8.9917   9.2129   9.7268  10.3172  10.8839
    12.7067  13.3414  13.5718  13.9601  14.3943  14.8960  15.1643  15.8300
    16.8181  17.3150  20.4744  23.6516

          k = 0.1534 0.1534 0.1534 (   817 PWs)   bands (ev):

   -80.9892 -77.9242 -44.4942 -44.3012 -44.3012 -41.4605 -41.4007 -41.4007
    -5.0737  -4.5077   7.2315   9.4146  10.5453  10.5453  11.8589  11.8589
    12.7912  12.8965  12.8965  14.5817  14.5817  14.8063  15.0894  15.0894
    16.9462  16.9462  18.6680  21.0055

          k =-0.3620-0.3620 0.7241 (   826 PWs)   bands (ev):

   -80.9801 -77.9138 -44.4821 -44.3840 -44.3214 -41.4974 -41.4458 -41.4242
    -3.6676  -3.5981   7.2840   7.9748   8.8306   9.5179  10.1577  11.1236
    12.1148  13.6722  13.8588  14.1286  14.5771  14.6516  16.0559  16.2145
    17.1511  17.2338  21.8602  23.3799

          k =-0.9143 0.5338 0.5338 (   815 PWs)   bands (ev):

   -80.9824 -77.9164 -44.4849 -44.3627 -44.3164 -41.4728 -41.4493 -41.4184
    -4.0551  -3.8558   7.6952   8.1490   9.0593  10.1552  10.4182  11.5797
    11.9647  13.5461  13.5714  13.9750  14.1075  14.6303  15.8203  15.8447
    16.7092  17.4376  21.8286  22.1791

          k =-1.4297 0.0184 1.1045 (   827 PWs)   bands (ev):

   -80.9801 -77.9138 -44.4819 -44.3735 -44.3320 -41.4851 -41.4456 -41.4366
    -3.6854  -3.5983   7.6039   8.4821   9.0431   9.2529   9.8759  10.0474
    12.8469  13.4356  13.7611  14.1958  14.3455  14.8414  15.6336  16.1879
    16.8274  17.8003  21.8172  23.5346

          k =-0.1902-0.1902 0.5338 (   827 PWs)   bands (ev):

   -80.9824 -77.9164 -44.4853 -44.3631 -44.3167 -41.4731 -41.4496 -41.4186
    -4.1753  -3.7300   8.0170   8.2875   8.7654   9.8139  10.3510  11.1507
    12.2844  13.5133  13.6654  14.1399  14.4828  14.5142  15.7762  15.8744
    16.8977  17.0600  21.2438  23.5493

          k =-0.7057-0.7057 1.1045 (   821 PWs)   bands (ev):

   -80.9870 -77.9216 -44.4911 -44.3219 -44.3063 -41.4568 -41.4249 -41.4066
    -4.6079  -4.4678   8.0413   8.5230  10.3522  10.5868  10.6012  11.4252
    12.6837  13.1775  13.3559  13.9478  14.4084  14.8076  15.2525  15.4458
    16.5128  17.0278  20.5287  21.4334

          k = 0.3436-0.3804 0.3436 (   827 PWs)   bands (ev):

   -80.9824 -77.9164 -44.4853 -44.3633 -44.3166 -41.4733 -41.4495 -41.4186
    -4.0801  -3.8345   8.0176   8.1854   9.1260   9.5472  10.3047  11.2364
    12.3178  13.4390  13.5374  14.3376  14.3729  14.5848  15.6656  15.8755
    17.1683  17.3734  20.4508  22.7944

          k =-0.1718-0.8959 0.9143 (   829 PWs)   bands (ev):

   -80.9801 -77.9138 -44.4820 -44.3734 -44.3321 -41.4850 -41.4457 -41.4366
    -3.6737  -3.6068   7.5078   8.1915   9.0230   9.6297   9.9715  10.1753
    12.6426  13.3859  13.7259  14.2416  14.3800  14.9787  15.7070  16.1673
    17.0761  17.3679  21.9449  22.9597

          k = 0.7241 0.0000-0.7241 (   831 PWs)   bands (ev):

   -80.9790 -77.9125 -44.4804 -44.3593 -44.3590 -41.4684 -41.4682 -41.4438
    -3.4793  -3.4792   8.2966   8.3452   8.8778   9.0013   9.2129   9.3935
    13.3495  13.4365  13.4780  14.2313  14.4711  15.4399  15.5671  15.8763
    17.1908  17.3020  23.8724  24.3333

          k = 0.2086-0.5155-0.1534 (   819 PWs)   bands (ev):

   -80.9835 -77.9177 -44.4866 -44.3488 -44.3177 -41.4564 -41.4513 -41.4199
    -4.2557  -3.9639   7.9539   8.4797   9.5466   9.9452  10.4114  10.7555
    12.7191  13.0731  13.6265  13.9906  14.3457  15.0176  15.1260  15.9327
    16.7962  16.9988  21.2963  22.6901

          k = 0.5338 0.5338-0.9143 (   815 PWs)   bands (ev):

   -80.9824 -77.9164 -44.4849 -44.3627 -44.3164 -41.4728 -41.4493 -41.4184
    -4.0551  -3.8558   7.6952   8.1490   9.0593  10.1552  10.4182  11.5797
    11.9647  13.5461  13.5714  13.9750  14.1075  14.6303  15.8203  15.8447
    16.7092  17.4376  21.8286  22.1791

          k = 0.0184 0.0184-0.3436 (   827 PWs)   bands (ev):

   -80.9870 -77.9216 -44.4913 -44.3221 -44.3065 -41.4569 -41.4250 -41.4068
    -4.8849  -4.1555   7.1680   9.4842  10.1442  10.3453  11.1004  11.9281
    12.4418  13.2534  13.4026  13.7635  13.9512  14.8628  15.2722  15.3586
    16.4158  17.3037  19.5921  22.7357

 ------ SPIN DOWN ----------


          k = 0.0000 0.0000 0.0000 (   811 PWs)   bands (ev):

   -80.9891 -77.9244 -44.4942 -44.3011 -44.3011 -41.4607 -41.4010 -41.4010
    -5.3266  -4.1849   6.3312  10.3034  10.3034  11.3305  12.1830  12.7793
    12.7793  12.8552  12.8552  13.6150  13.6150  14.7459  15.1268  15.1268
    17.2724  17.2724  17.3722  22.2027

          k =-0.5155-0.5155 0.5706 (   824 PWs)   bands (ev):

   -80.9799 -77.9140 -44.4817 -44.3838 -44.3214 -41.4975 -41.4458 -41.4245
    -3.6980  -3.5633   6.8659   8.1341   8.8068   9.9515  10.3342  11.5962
    11.7019  13.6644  13.6727  14.0071  14.1904  14.6433  16.0655  16.1829
    17.5287  17.9042  20.2991  22.4936

          k = 0.5338-0.1902-0.1902 (   827 PWs)   bands (ev):

   -80.9822 -77.9166 -44.4851 -44.3629 -44.3165 -41.4733 -41.4498 -41.4188
    -4.1753  -3.7300   8.0170   8.2875   8.7654   9.8139  10.3511  11.1507
    12.2845  13.5135  13.6655  14.1399  14.4828  14.5143  15.7760  15.8743
    16.8976  17.0599  21.2438  23.5492

          k = 0.0184-0.7057 0.3804 (   832 PWs)   bands (ev):

   -80.9799 -77.9140 -44.4820 -44.3731 -44.3321 -41.4851 -41.4461 -41.4370
    -3.7178  -3.5639   7.9343   8.0614   8.8866   9.4070   9.8885  10.0898
    12.8036  13.5093  13.7992  14.2015  14.3288  14.8741  15.7092  16.1744
    16.9429  17.2809  22.9317  23.4001

          k = 0.3436 0.3436-0.3804 (   827 PWs)   bands (ev):

   -80.9822 -77.9166 -44.4851 -44.3631 -44.3164 -41.4734 -41.4496 -41.4187
    -4.0801  -3.8345   8.0176   8.1854   9.1260   9.5472  10.3048  11.2364
    12.3180  13.4391  13.5376  14.3375  14.3730  14.5849  15.6654  15.8753
    17.1682  17.3733  20.4508  22.7944

          k =-0.1718-0.1718 0.1902 (   811 PWs)   bands (ev):

   -80.9867 -77.9218 -44.4907 -44.3215 -44.3061 -41.4567 -41.4250 -41.4068
    -4.9485  -4.0772   6.9828   9.7664  10.4240  10.4827  10.7133  11.6090
    12.4943  13.0615  13.1686  14.2396  14.3403  14.7375  15.2005  15.5019
    16.8781  16.9768  18.9054  23.2407

          k =-0.7241 0.7241 0.0000 (   831 PWs)   bands (ev):

   -80.9788 -77.9127 -44.4802 -44.3591 -44.3588 -41.4686 -41.4684 -41.4440
    -3.4793  -3.4792   8.2966   8.3452   8.8779   9.0013   9.2130   9.3935
    13.3496  13.4366  13.4782  14.2314  14.4712  15.4397  15.5669  15.8761
    17.1907  17.3019  23.8724  24.3333

          k =-1.2395 0.2086 0.5706 (   815 PWs)   bands (ev):

   -80.9833 -77.9179 -44.4863 -44.3488 -44.3172 -41.4568 -41.4514 -41.4199
    -4.3950  -3.8108   7.8137   8.9918   9.2129   9.7268  10.3172  10.8840
    12.7069  13.3415  13.5720  13.9602  14.3944  14.8958  15.1642  15.8298
    16.8180  17.3148  20.4744  23.6516

          k = 0.1534 0.1534 0.1534 (   817 PWs)   bands (ev):

   -80.9890 -77.9244 -44.4940 -44.3010 -44.3010 -41.4607 -41.4009 -41.4009
    -5.0737  -4.5077   7.2315   9.4146  10.5453  10.5453  11.8589  11.8589
    12.7913  12.8967  12.8967  14.5817  14.5817  14.8062  15.0892  15.0892
    16.9461  16.9461  18.6680  21.0055

          k =-0.3620-0.3620 0.7241 (   826 PWs)   bands (ev):

   -80.9799 -77.9140 -44.4819 -44.3838 -44.3212 -41.4975 -41.4459 -41.4244
    -3.6676  -3.5981   7.2841   7.9748   8.8306   9.5179  10.1578  11.1236
    12.1149  13.6723  13.8589  14.1286  14.5772  14.6517  16.0557  16.2143
    17.1509  17.2337  21.8602  23.3799

          k =-0.9143 0.5338 0.5338 (   815 PWs)   bands (ev):

   -80.9822 -77.9166 -44.4847 -44.3625 -44.3162 -41.4730 -41.4495 -41.4186
    -4.0551  -3.8558   7.6952   8.1491   9.0593  10.1552  10.4182  11.5798
    11.9648  13.5462  13.5716  13.9751  14.1076  14.6302  15.8202  15.8446
    16.7091  17.4375  21.8286  22.1791

          k =-1.4297 0.0184 1.1045 (   827 PWs)   bands (ev):

   -80.9799 -77.9140 -44.4817 -44.3733 -44.3318 -41.4853 -41.4458 -41.4367
    -3.6854  -3.5983   7.6039   8.4821   9.0432   9.2529   9.8759  10.0474
    12.8470  13.4357  13.7612  14.1959  14.3456  14.8413  15.6334  16.1877
    16.8272  17.8002  21.8172  23.5346

          k =-0.1902-0.1902 0.5338 (   827 PWs)   bands (ev):

   -80.9822 -77.9166 -44.4851 -44.3629 -44.3165 -41.4733 -41.4498 -41.4188
    -4.1753  -3.7300   8.0170   8.2875   8.7654   9.8139  10.3511  11.1507
    12.2845  13.5135  13.6655  14.1399  14.4828  14.5143  15.7760  15.8743
    16.8976  17.0599  21.2438  23.5492

          k =-0.7057-0.7057 1.1045 (   821 PWs)   bands (ev):

   -80.9868 -77.9218 -44.4909 -44.3217 -44.3061 -41.4569 -41.4251 -41.4068
    -4.6079  -4.4678   8.0413   8.5230  10.3522  10.5869  10.6013  11.4252
    12.6838  13.1777  13.3560  13.9479  14.4084  14.8074  15.2523  15.4457
    16.5127  17.0277  20.5287  21.4334

          k = 0.3436-0.3804 0.3436 (   827 PWs)   bands (ev):

   -80.9822 -77.9166 -44.4851 -44.3631 -44.3164 -41.4734 -41.4496 -41.4187
    -4.0801  -3.8345   8.0176   8.1854   9.1260   9.5472  10.3048  11.2364
    12.3180  13.4391  13.5376  14.3375  14.3730  14.5849  15.6654  15.8753
    17.1682  17.3733  20.4508  22.7944

          k =-0.1718-0.8959 0.9143 (   829 PWs)   bands (ev):

   -80.9799 -77.9140 -44.4818 -44.3732 -44.3319 -41.4852 -41.4458 -41.4368
    -3.6737  -3.6068   7.5079   8.1915   9.0230   9.6298   9.9715  10.1753
    12.6427  13.3861  13.7261  14.2416  14.3801  14.9787  15.7069  16.1671
    17.0760  17.3678  21.9449  22.9597

          k = 0.7241 0.0000-0.7241 (   831 PWs)   bands (ev):

   -80.9788 -77.9127 -44.4802 -44.3591 -44.3588 -41.4686 -41.4684 -41.4440
    -3.4793  -3.4792   8.2966   8.3452   8.8779   9.0013   9.2130   9.3935
    13.3496  13.4366  13.4782  14.2314  14.4712  15.4397  15.5669  15.8761
    17.1907  17.3019  23.8724  24.3333

          k = 0.2086-0.5155-0.1534 (   819 PWs)   bands (ev):

   -80.9833 -77.9179 -44.4864 -44.3485 -44.3175 -41.4566 -41.4515 -41.4201
    -4.2557  -3.9639   7.9539   8.4797   9.5466   9.9452  10.4114  10.7555
    12.7193  13.0733  13.6266  13.9907  14.3458  15.0175  15.1259  15.9326
    16.7961  16.9987  21.2963  22.6901

          k = 0.5338 0.5338-0.9143 (   815 PWs)   bands (ev):

   -80.9822 -77.9166 -44.4847 -44.3625 -44.3162 -41.4730 -41.4495 -41.4186
    -4.0551  -3.8558   7.6952   8.1491   9.0593  10.1552  10.4182  11.5798
    11.9648  13.5462  13.5716  13.9751  14.1076  14.6302  15.8202  15.8446
    16.7091  17.4375  21.8286  22.1791

          k = 0.0184 0.0184-0.3436 (   827 PWs)   bands (ev):

   -80.9868 -77.9218 -44.4911 -44.3219 -44.3063 -41.4571 -41.4252 -41.4070
    -4.8849  -4.1555   7.1680   9.4842  10.1442  10.3454  11.1004  11.9281
    12.4420  13.2535  13.4028  13.7635  13.9513  14.8627  15.2721  15.3585
    16.4156  17.3036  19.5921  22.7357

     the Fermi energy is    15.7920 ev
     (compare with:    15.7920 eV, computed in scf)

     Writing all to output data dir ./tmp/HP/CoO.save/
     Done!

                   WRITING LINEAR-RESPONSE SUMMARY:


     Number of symmetries in the small group of q, nsymq =  4
      + the symmetry q -> -q+G 

     G cutoff =  453.9189  (    580 G-vectors)     FFT grid: ( 60, 60, 60)
     G cutoff =  226.9595  (    205 G-vectors)  smooth grid: ( 40, 40, 40)

     Number of k (and k+q if q/=0) points =    40  Marzari-Vanderbilt smearing, width (Ry) =  0.0200

                       cart. coord. (in units 2pi/alat)
        k (    1) = (   0.0000000   0.0000000   0.0000000), wk = 0.0370370
        k (    2) = (  -0.5154547  -0.5154547   0.5706212), wk = 0.0000000
        k (    3) = (   0.5338435  -0.1902071  -0.1902071), wk = 0.1481481
        k (    4) = (   0.0183888  -0.7056618   0.3804141), wk = 0.0000000
        k (    5) = (   0.3436365   0.3436365  -0.3804141), wk = 0.0740741
        k (    6) = (  -0.1718182  -0.1718182   0.1902071), wk = 0.0000000
        k (    7) = (  -0.7240506   0.7240506   0.0000000), wk = 0.0740741
        k (    8) = (  -1.2395053   0.2085959   0.5706212), wk = 0.0000000
        k (    9) = (   0.1534294   0.1534294   0.1534294), wk = 0.0740741
        k (   10) = (  -0.3620253  -0.3620253   0.7240506), wk = 0.0000000
        k (   11) = (  -0.9142576   0.5338435   0.5338435), wk = 0.1481481
        k (   12) = (  -1.4297124   0.0183888   1.1044647), wk = 0.0000000
        k (   13) = (  -0.1902071  -0.1902071   0.5338435), wk = 0.0740741
        k (   14) = (  -0.7056618  -0.7056618   1.1044647), wk = 0.0000000
        k (   15) = (   0.3436365  -0.3804141   0.3436365), wk = 0.1481481
        k (   16) = (  -0.1718182  -0.8958688   0.9142576), wk = 0.0000000
        k (   17) = (   0.7240506   0.0000000  -0.7240506), wk = 0.1481481
        k (   18) = (   0.2085959  -0.5154547  -0.1534294), wk = 0.0000000
        k (   19) = (   0.5338435   0.5338435  -0.9142576), wk = 0.0740741
        k (   20) = (   0.0183888   0.0183888  -0.3436365), wk = 0.0000000
        k (   21) = (   0.0000000   0.0000000   0.0000000), wk = 0.0370370
        k (   22) = (  -0.5154547  -0.5154547   0.5706212), wk = 0.0000000
        k (   23) = (   0.5338435  -0.1902071  -0.1902071), wk = 0.1481481
        k (   24) = (   0.0183888  -0.7056618   0.3804141), wk = 0.0000000
        k (   25) = (   0.3436365   0.3436365  -0.3804141), wk = 0.0740741
        k (   26) = (  -0.1718182  -0.1718182   0.1902071), wk = 0.0000000
        k (   27) = (  -0.7240506   0.7240506   0.0000000), wk = 0.0740741
        k (   28) = (  -1.2395053   0.2085959   0.5706212), wk = 0.0000000
        k (   29) = (   0.1534294   0.1534294   0.1534294), wk = 0.0740741
        k (   30) = (  -0.3620253  -0.3620253   0.7240506), wk = 0.0000000
        k (   31) = (  -0.9142576   0.5338435   0.5338435), wk = 0.1481481
        k (   32) = (  -1.4297124   0.0183888   1.1044647), wk = 0.0000000
        k (   33) = (  -0.1902071  -0.1902071   0.5338435), wk = 0.0740741
        k (   34) = (  -0.7056618  -0.7056618   1.1044647), wk = 0.0000000
        k (   35) = (   0.3436365  -0.3804141   0.3436365), wk = 0.1481481
        k (   36) = (  -0.1718182  -0.8958688   0.9142576), wk = 0.0000000
        k (   37) = (   0.7240506   0.0000000  -0.7240506), wk = 0.1481481
        k (   38) = (   0.2085959  -0.5154547  -0.1534294), wk = 0.0000000
        k (   39) = (   0.5338435   0.5338435  -0.9142576), wk = 0.0740741
        k (   40) = (   0.0183888   0.0183888  -0.3436365), wk = 0.0000000

                       cryst. coord.
        k (    1) = (   0.0000000   0.0000000   0.0000000), wk = 0.0370370
        k (    2) = (  -0.0000000  -0.5000000  -0.5000000), wk = 0.0000000
        k (    3) = (   0.0000000   0.0000000   0.3333333), wk = 0.1481481
        k (    4) = (  -0.0000000  -0.5000000  -0.1666667), wk = 0.0000000
        k (    5) = (   0.0000000   0.3333333   0.3333333), wk = 0.0740741
        k (    6) = (  -0.0000000  -0.1666667  -0.1666667), wk = 0.0000000
        k (    7) = (   0.0000000   0.3333333  -0.3333333), wk = 0.0740741
        k (    8) = (  -0.0000000  -0.1666667  -0.8333333), wk = 0.0000000
        k (    9) = (   0.3333333   0.3333333   0.3333333), wk = 0.0740741
        k (   10) = (   0.3333333  -0.1666667  -0.1666667), wk = 0.0000000
        k (   11) = (   0.3333333   0.3333333  -0.3333333), wk = 0.1481481
        k (   12) = (   0.3333333  -0.1666667  -0.8333333), wk = 0.0000000
        k (   13) = (   0.3333333   0.0000000   0.0000000), wk = 0.0740741
        k (   14) = (   0.3333333  -0.5000000  -0.5000000), wk = 0.0000000
        k (   15) = (   0.3333333   0.0000000   0.3333333), wk = 0.1481481
        k (   16) = (   0.3333333  -0.5000000  -0.1666667), wk = 0.0000000
        k (   17) = (  -0.3333333   0.0000000   0.3333333), wk = 0.1481481
        k (   18) = (  -0.3333333  -0.5000000  -0.1666667), wk = 0.0000000
        k (   19) = (  -0.3333333   0.3333333   0.3333333), wk = 0.0740741
        k (   20) = (  -0.3333333  -0.1666667  -0.1666667), wk = 0.0000000
        k (   21) = (   0.0000000   0.0000000   0.0000000), wk = 0.0370370
        k (   22) = (  -0.0000000  -0.5000000  -0.5000000), wk = 0.0000000
        k (   23) = (   0.0000000   0.0000000   0.3333333), wk = 0.1481481
        k (   24) = (  -0.0000000  -0.5000000  -0.1666667), wk = 0.0000000
        k (   25) = (   0.0000000   0.3333333   0.3333333), wk = 0.0740741
        k (   26) = (  -0.0000000  -0.1666667  -0.1666667), wk = 0.0000000
        k (   27) = (   0.0000000   0.3333333  -0.3333333), wk = 0.0740741
        k (   28) = (  -0.0000000  -0.1666667  -0.8333333), wk = 0.0000000
        k (   29) = (   0.3333333   0.3333333   0.3333333), wk = 0.0740741
        k (   30) = (   0.3333333  -0.1666667  -0.1666667), wk = 0.0000000
        k (   31) = (   0.3333333   0.3333333  -0.3333333), wk = 0.1481481
        k (   32) = (   0.3333333  -0.1666667  -0.8333333), wk = 0.0000000
        k (   33) = (   0.3333333   0.0000000   0.0000000), wk = 0.0740741
        k (   34) = (   0.3333333  -0.5000000  -0.5000000), wk = 0.0000000
        k (   35) = (   0.3333333   0.0000000   0.3333333), wk = 0.1481481
        k (   36) = (   0.3333333  -0.5000000  -0.1666667), wk = 0.0000000
        k (   37) = (  -0.3333333   0.0000000   0.3333333), wk = 0.1481481
        k (   38) = (  -0.3333333  -0.5000000  -0.1666667), wk = 0.0000000
        k (   39) = (  -0.3333333   0.3333333   0.3333333), wk = 0.0740741
        k (   40) = (  -0.3333333  -0.1666667  -0.1666667), wk = 0.0000000

     Atomic wfc used for the projector on the Hubbard manifold are orthogonalized

     Total time spent up to now is:
     HP           :     44.31s CPU     46.98s WALL

      =--------------------------------------------=
                 SOLVE THE LINEAR SYSTEM
      =--------------------------------------------=

      atom #  1   q point #   3   iter #   1
      chi:   1  -2.0920651351
      chi:   2   0.0617155519
      Average number of iter. to solve lin. system:   37.9
      Total CPU time :    49.6 s

      atom #  1   q point #   3   iter #   2
      chi:   1  19.6721065372   residue:   21.7641716724
      chi:   2  -1.9476848600   residue:    2.0094004118
      Average number of iter. to solve lin. system:   16.4
      Total CPU time :    50.9 s

      atom #  1   q point #   3   iter #   3
      chi:   1  -0.1023804768   residue:   19.7744870140
      chi:   2   1.1535650067   residue:    3.1012498667
      Average number of iter. to solve lin. system:   12.3
      Total CPU time :    52.0 s

      atom #  1   q point #   3   iter #   4
      chi:   1  -0.3582321993   residue:    0.2558517226
      chi:   2  -0.5803134125   residue:    1.7338784192
      Average number of iter. to solve lin. system:   13.6
      Total CPU time :    53.2 s

[...]

          k =-0.2301-0.2301-0.2301 (   828 PWs)   bands (ev):

   -80.9890 -77.9244 -44.4943 -44.3011 -44.3011 -41.4610 -41.4010 -41.4010
    -4.8087  -4.7955   8.1286   8.3219  10.6754  10.6754  11.5987  11.5987
    12.8637  12.9010  12.9010  14.8070  14.8624  14.8624  15.0554  15.0554
    16.8069  16.8069  19.7443  19.9715

          k = 0.5338-0.1902-0.1902 (   827 PWs)   bands (ev):

   -80.9822 -77.9166 -44.4851 -44.3629 -44.3165 -41.4733 -41.4498 -41.4188
    -4.1753  -3.7300   8.0170   8.2875   8.7654   9.8139  10.3511  11.1507
    12.2845  13.5135  13.6655  14.1399  14.4828  14.5143  15.7760  15.8743
    16.8976  17.0599  21.2438  23.5492

          k = 0.3037-0.4204-0.4204 (   817 PWs)   bands (ev):

   -80.9822 -77.9166 -44.4847 -44.3627 -44.3161 -41.4732 -41.4495 -41.4185
    -3.9710  -3.9442   7.7943   8.1349   9.1435  10.0647  10.1892  11.4925
    12.1269  13.4323  13.5722  14.0633  14.2745  14.6310  15.7262  15.8367
    17.0794  17.3856  20.9369  22.4141

          k = 0.3436 0.3436-0.3804 (   827 PWs)   bands (ev):

   -80.9822 -77.9166 -44.4851 -44.3631 -44.3164 -41.4734 -41.4496 -41.4187
    -4.0801  -3.8345   8.0176   8.1854   9.1260   9.5472  10.3048  11.2364
    12.3180  13.4391  13.5376  14.3375  14.3730  14.5849  15.6654  15.8753
    17.1682  17.3733  20.4508  22.7944

          k = 0.1135 0.1135-0.6106 (   819 PWs)   bands (ev):

   -80.9822 -77.9166 -44.4849 -44.3626 -44.3163 -41.4732 -41.4496 -41.4186
    -4.1391  -3.7669   7.7776   8.2160   8.9070  10.2196  10.2592  11.4167
    12.0771  13.5277  13.7431  13.9512  14.2202  14.5635  15.8303  15.8930
    16.6092  17.2913  21.8277  22.8553

          k =-0.7241 0.7241 0.0000 (   831 PWs)   bands (ev):

   -80.9788 -77.9127 -44.4802 -44.3591 -44.3588 -41.4686 -41.4684 -41.4440
    -3.4793  -3.4792   8.2966   8.3452   8.8779   9.0013   9.2130   9.3935
    13.3496  13.4366  13.4782  14.2314  14.4712  15.4397  15.5669  15.8761
    17.1907  17.3019  23.8724  24.3333

          k =-0.9542 0.4939-0.2301 (   846 PWs)   bands (ev):

   -80.9788 -77.9127 -44.4805 -44.3594 -44.3594 -41.4688 -41.4688 -41.4442
    -3.4793  -3.4793   8.3011   8.3331   8.9022   8.9629   9.2227   9.3867
    13.3489  13.4342  13.4781  14.2321  14.4650  15.4554  15.5441  15.8802
    17.1975  17.2902  24.0569  24.0706

          k = 0.1534 0.1534 0.1534 (   817 PWs)   bands (ev):

   -80.9890 -77.9244 -44.4940 -44.3010 -44.3010 -41.4607 -41.4009 -41.4009
    -5.0737  -4.5077   7.2315   9.4146  10.5453  10.5453  11.8589  11.8589
    12.7913  12.8967  12.8967  14.5817  14.5817  14.8062  15.0892  15.0892
    16.9461  16.9461  18.6680  21.0055

          k =-0.0767-0.0767-0.0767 (   808 PWs)   bands (ev):

   -80.9891 -77.9244 -44.4938 -44.3011 -44.3011 -41.4605 -41.4010 -41.4010
    -5.2605  -4.2746   6.5699  10.3717  10.3717  10.6041  12.3773  12.3773
    12.5284  12.8836  12.8836  14.0168  14.0168  14.7789  15.1171  15.1171
    17.1759  17.1759  17.7327  21.8628

          k =-0.9143 0.5338 0.5338 (   815 PWs)   bands (ev):

   -80.9822 -77.9166 -44.4847 -44.3625 -44.3162 -41.4730 -41.4495 -41.4186
    -4.0551  -3.8558   7.6952   8.1491   9.0593  10.1552  10.4182  11.5798
    11.9648  13.5462  13.5716  13.9751  14.1076  14.6302  15.8202  15.8446
    16.7091  17.4375  21.8286  22.1791

          k =-1.1444 0.3037 0.3037 (   824 PWs)   bands (ev):

   -80.9822 -77.9166 -44.4850 -44.3630 -44.3164 -41.4734 -41.4496 -41.4188
    -4.1542  -3.7555   8.1973   8.2499   8.8547   9.4717  10.4195  11.0433
    12.3795  13.5188  13.5306  14.3062  14.5063  14.5896  15.6804  15.9104
    16.9840  17.2751  20.6324  23.3303

     the Fermi energy is    15.7920 ev
     (compare with:    15.7920 eV, computed in scf)

     Writing all to output data dir ./tmp/HP/CoO.save/
     Done!

                   WRITING LINEAR-RESPONSE SUMMARY:


     Number of symmetries in the small group of q, nsymq = 12
      + the symmetry q -> -q+G 

     G cutoff =  453.9189  (    580 G-vectors)     FFT grid: ( 60, 60, 60)
     G cutoff =  226.9595  (    205 G-vectors)  smooth grid: ( 40, 40, 40)

     Number of k (and k+q if q/=0) points =    24  Marzari-Vanderbilt smearing, width (Ry) =  0.0200

                       cart. coord. (in units 2pi/alat)
        k (    1) = (   0.0000000   0.0000000   0.0000000), wk = 0.0370370
        k (    2) = (  -0.2301442  -0.2301442  -0.2301442), wk = 0.0000000
        k (    3) = (   0.5338435  -0.1902071  -0.1902071), wk = 0.2222222
        k (    4) = (   0.3036994  -0.4203512  -0.4203512), wk = 0.0000000
        k (    5) = (   0.3436365   0.3436365  -0.3804141), wk = 0.2222222
        k (    6) = (   0.1134923   0.1134923  -0.6105583), wk = 0.0000000
        k (    7) = (  -0.7240506   0.7240506   0.0000000), wk = 0.2222222
        k (    8) = (  -0.9541948   0.4939064  -0.2301442), wk = 0.0000000
        k (    9) = (   0.1534294   0.1534294   0.1534294), wk = 0.0740741
        k (   10) = (  -0.0767147  -0.0767147  -0.0767147), wk = 0.0000000
        k (   11) = (  -0.9142576   0.5338435   0.5338435), wk = 0.2222222
        k (   12) = (  -1.1444018   0.3036994   0.3036994), wk = 0.0000000
        k (   13) = (   0.0000000   0.0000000   0.0000000), wk = 0.0370370
        k (   14) = (  -0.2301442  -0.2301442  -0.2301442), wk = 0.0000000
        k (   15) = (   0.5338435  -0.1902071  -0.1902071), wk = 0.2222222
        k (   16) = (   0.3036994  -0.4203512  -0.4203512), wk = 0.0000000
        k (   17) = (   0.3436365   0.3436365  -0.3804141), wk = 0.2222222
        k (   18) = (   0.1134923   0.1134923  -0.6105583), wk = 0.0000000
        k (   19) = (  -0.7240506   0.7240506   0.0000000), wk = 0.2222222
        k (   20) = (  -0.9541948   0.4939064  -0.2301442), wk = 0.0000000
        k (   21) = (   0.1534294   0.1534294   0.1534294), wk = 0.0740741
        k (   22) = (  -0.0767147  -0.0767147  -0.0767147), wk = 0.0000000
        k (   23) = (  -0.9142576   0.5338435   0.5338435), wk = 0.2222222
        k (   24) = (  -1.1444018   0.3036994   0.3036994), wk = 0.0000000

                       cryst. coord.
        k (    1) = (   0.0000000   0.0000000   0.0000000), wk = 0.0370370
        k (    2) = (  -0.5000000  -0.5000000  -0.5000000), wk = 0.0000000
        k (    3) = (   0.0000000   0.0000000   0.3333333), wk = 0.2222222
        k (    4) = (  -0.5000000  -0.5000000  -0.1666667), wk = 0.0000000
        k (    5) = (   0.0000000   0.3333333   0.3333333), wk = 0.2222222
        k (    6) = (  -0.5000000  -0.1666667  -0.1666667), wk = 0.0000000
        k (    7) = (   0.0000000   0.3333333  -0.3333333), wk = 0.2222222
        k (    8) = (  -0.5000000  -0.1666667  -0.8333333), wk = 0.0000000
        k (    9) = (   0.3333333   0.3333333   0.3333333), wk = 0.0740741
        k (   10) = (  -0.1666667  -0.1666667  -0.1666667), wk = 0.0000000
        k (   11) = (   0.3333333   0.3333333  -0.3333333), wk = 0.2222222
        k (   12) = (  -0.1666667  -0.1666667  -0.8333333), wk = 0.0000000
        k (   13) = (   0.0000000   0.0000000   0.0000000), wk = 0.0370370
        k (   14) = (  -0.5000000  -0.5000000  -0.5000000), wk = 0.0000000
        k (   15) = (   0.0000000   0.0000000   0.3333333), wk = 0.2222222
        k (   16) = (  -0.5000000  -0.5000000  -0.1666667), wk = 0.0000000
        k (   17) = (   0.0000000   0.3333333   0.3333333), wk = 0.2222222
        k (   18) = (  -0.5000000  -0.1666667  -0.1666667), wk = 0.0000000
        k (   19) = (   0.0000000   0.3333333  -0.3333333), wk = 0.2222222
        k (   20) = (  -0.5000000  -0.1666667  -0.8333333), wk = 0.0000000
        k (   21) = (   0.3333333   0.3333333   0.3333333), wk = 0.0740741
        k (   22) = (  -0.1666667  -0.1666667  -0.1666667), wk = 0.0000000
        k (   23) = (   0.3333333   0.3333333  -0.3333333), wk = 0.2222222
        k (   24) = (  -0.1666667  -0.1666667  -0.8333333), wk = 0.0000000

     Atomic wfc used for the projector on the Hubbard manifold are orthogonalized

     Total time spent up to now is:
     HP           :   1m 8.14s CPU   1m12.18s WALL

      =--------------------------------------------=
                 SOLVE THE LINEAR SYSTEM
      =--------------------------------------------=

      atom #  1   q point #   4   iter #   1
      chi:   1  -3.1363372797
      chi:   2   0.0000000000
      Average number of iter. to solve lin. system:   33.2
      Total CPU time :    73.8 s

      atom #  1   q point #   4   iter #   2
      chi:   1 115.1356202114   residue:  118.2719574912
      chi:   2  -0.0000000000   residue:    0.0000000000
      Average number of iter. to solve lin. system:   13.3
      Total CPU time :    74.6 s

      atom #  1   q point #   4   iter #   3
      chi:   1   0.5881247541   residue:  114.5474954574
      chi:   2  -0.0000000000   residue:    0.0000000000
      Average number of iter. to solve lin. system:   12.3
      Total CPU time :    75.3 s

      atom #  1   q point #   4   iter #   4
      chi:   1  -0.9051274189   residue:    1.4932521730
      chi:   2   0.0000000000   residue:    0.0000000000
      Average number of iter. to solve lin. system:    9.8
      Total CPU time :    76.0 s

      atom #  1   q point #   4   iter #   5
      chi:   1  -0.0385072140   residue:    0.8666202049
      chi:   2  -0.0000000000   residue:    0.0000000000
      Average number of iter. to solve lin. system:    8.2
      Total CPU time :    76.6 s

      atom #  1   q point #   4   iter #   6
      chi:   1  -0.1435945862   residue:    0.1050873722
      chi:   2   0.0000000000   residue:    0.0000000000
      Average number of iter. to solve lin. system:    8.9
      Total CPU time :    77.3 s

      atom #  1   q point #   4   iter #   7
      chi:   1  -0.1294158949   residue:    0.0141786912
      chi:   2   0.0000000000   residue:    0.0000000000
      Average number of iter. to solve lin. system:    8.1
      Total CPU time :    77.9 s

      atom #  1   q point #   4   iter #   8
      chi:   1  -0.1230622839   residue:    0.0063536110
      chi:   2  -0.0000000000   residue:    0.0000000000
      Average number of iter. to solve lin. system:    9.3
      Total CPU time :    78.5 s

      atom #  1   q point #   4   iter #   9
      chi:   1  -0.1160801189   residue:    0.0069821650
      chi:   2   0.0000000000   residue:    0.0000000000
      Average number of iter. to solve lin. system:    9.6
      Total CPU time :    79.2 s

      atom #  1   q point #   4   iter #  10
      chi:   1  -0.1132720397   residue:    0.0028080792
      chi:   2   0.0000000000   residue:    0.0000000000
      Average number of iter. to solve lin. system:    9.2
      Total CPU time :    79.8 s

      atom #  1   q point #   4   iter #  11
      chi:   1  -0.1104317851   residue:    0.0028402545
      chi:   2   0.0000000000   residue:    0.0000000000
      Average number of iter. to solve lin. system:    9.9
      Total CPU time :    80.5 s

      atom #  1   q point #   4   iter #  12
      chi:   1  -0.1099222052   residue:    0.0005095800
      chi:   2  -0.0000000000   residue:    0.0000000000
      Average number of iter. to solve lin. system:   10.7
      Total CPU time :    81.2 s

      atom #  1   q point #   4   iter #  13
      chi:   1  -0.1099336461   residue:    0.0000114409
      chi:   2   0.0000000000   residue:    0.0000000000
      Average number of iter. to solve lin. system:   13.4
      Total CPU time :    82.0 s

      atom #  1   q point #   4   iter #  14
      chi:   1  -0.1099005896   residue:    0.0000330565
      chi:   2   0.0000000000   residue:    0.0000000000
      Average number of iter. to solve lin. system:   13.2
      Total CPU time :    82.8 s

      atom #  1   q point #   4   iter #  15
      chi:   1  -0.1099073407   residue:    0.0000067511
      chi:   2   0.0000000000   residue:    0.0000000000
      Average number of iter. to solve lin. system:   15.4
      Total CPU time :    83.8 s

      atom #  1   q point #   4   iter #  16
      chi:   1  -0.1099090431   residue:    0.0000017024
      chi:   2   0.0000000000   residue:    0.0000000000
      Average number of iter. to solve lin. system:   13.6
      Total CPU time :    84.6 s

      atom #  1   q point #   4   iter #  17
      chi:   1  -0.1098981489   residue:    0.0000108942
      chi:   2   0.0000000000   residue:    0.0000000000
      Average number of iter. to solve lin. system:   12.5
      Total CPU time :    85.3 s

      atom #  1   q point #   4   iter #  18
      chi:   1  -0.1099012357   residue:    0.0000030868
      chi:   2   0.0000000000   residue:    0.0000000000
      Average number of iter. to solve lin. system:    8.9
      Total CPU time :    86.0 s

      atom #  1   q point #   4   iter #  19
      chi:   1  -0.1099046042   residue:    0.0000033685
      chi:   2   0.0000000000   residue:    0.0000000000
      Average number of iter. to solve lin. system:   11.2
      Total CPU time :    86.7 s

      atom #  1   q point #   4   iter #  20
      chi:   1  -0.1099047473   residue:    0.0000001430
      chi:   2   0.0000000000   residue:    0.0000000000
      Average number of iter. to solve lin. system:   13.2
      Total CPU time :    87.5 s
      
      =--------------------------------------------=
             CONVERGENCE HAS BEEN REACHED
      =--------------------------------------------=

     Computing the sum over q of the response occupation matrices...

     q #   1 =  0.000000000   0.000000000   0.000000000
 
     Number of q in the star =    1
     List of q in the star:
          1   0.000000000   0.000000000   0.000000000

     q #   2 = -0.800765314   0.285310577   0.285310577
 
     Number of q in the star =    3
     List of q in the star:
          1  -0.800765314   0.285310577   0.285310577
          2   0.285310577   0.285310577  -0.800765314
          3   0.285310577  -0.800765314   0.285310577

     q #   3 = -0.515454737  -0.515454737   0.570621154
 
     Number of q in the star =    3
     List of q in the star:
          1  -0.515454737  -0.515454737   0.570621154
          2  -0.515454737   0.570621154  -0.515454737
          3   0.570621154  -0.515454737  -0.515454737

     q #   4 = -0.230144160  -0.230144160  -0.230144160
 
     Number of q in the star =    1
     List of q in the star:
          1  -0.230144160  -0.230144160  -0.230144160

     Post-processing calculation of Hubbard parameters ...

 
     PRINTING TIMING FROM PWSCF ROUTINES: 
 
     init_run     :      0.34s CPU      0.37s WALL (       3 calls)
     electrons    :      5.88s CPU      6.03s WALL (       3 calls)

     Called by init_run:
     wfcinit      :      0.07s CPU      0.08s WALL (       3 calls)
     wfcinit:atom :      0.00s CPU      0.00s WALL (     104 calls)
     wfcinit:wfcr :      0.46s CPU      0.49s WALL (     104 calls)
     potinit      :      0.08s CPU      0.08s WALL (       3 calls)
     hinit0       :      0.16s CPU      0.16s WALL (       3 calls)

     Called by electrons:
     c_bands      :      5.88s CPU      6.02s WALL (       3 calls)
     v_of_rho     :      0.02s CPU      0.03s WALL (       4 calls)
     v_h          :      0.00s CPU      0.00s WALL (       4 calls)
     v_xc         :      0.02s CPU      0.02s WALL (       4 calls)
     newd         :      0.01s CPU      0.01s WALL (       4 calls)
     PAW_pot      :      0.08s CPU      0.08s WALL (       4 calls)

     Called by c_bands:
     init_us_2    :      0.02s CPU      0.02s WALL (    1584 calls)
     init_us_2:cp :      0.02s CPU      0.02s WALL (    1584 calls)
     cegterg      :      5.39s CPU      5.49s WALL (     104 calls)

     Called by sum_band:

     Called by *egterg:
     cdiaghg      :      2.42s CPU      2.45s WALL (    1548 calls)
     cegterg:over :      0.28s CPU      0.29s WALL (    1444 calls)
     cegterg:upda :      0.03s CPU      0.03s WALL (    1444 calls)
     cegterg:last :      0.03s CPU      0.03s WALL (     312 calls)
     h_psi        :     50.44s CPU     52.19s WALL (   36857 calls)
     s_psi        :      0.97s CPU      1.01s WALL (   73466 calls)
     g_psi        :      0.00s CPU      0.00s WALL (    1444 calls)

     Called by h_psi:
     h_psi:calbec :      2.26s CPU      2.33s WALL (   36857 calls)
     vloc_psi     :     46.42s CPU     48.04s WALL (   36857 calls)
     add_vuspsi   :      0.50s CPU      0.52s WALL (   36857 calls)
     vhpsi        :      1.05s CPU      1.08s WALL (   36857 calls)

     General routines
     calbec       :      5.40s CPU      5.60s WALL (  111583 calls)
     fft          :      0.35s CPU      0.38s WALL (    2418 calls)
     ffts         :      0.05s CPU      0.05s WALL (     608 calls)
     fftw         :     49.29s CPU     51.07s WALL ( 1047928 calls)
     interpolate  :      0.07s CPU      0.08s WALL (     320 calls)
     davcio       :      0.32s CPU      0.44s WALL (   46969 calls)
 
     Parallel routines

     Hubbard U routines
     vhpsi        :      1.05s CPU      1.08s WALL (   36857 calls)

     PAW routines
     PAW_pot      :      0.08s CPU      0.08s WALL (       4 calls)
 
     init_vloc    :      0.02s CPU      0.02s WALL (       4 calls)
     init_us_1    :      0.14s CPU      0.15s WALL (       4 calls)
     newd         :      0.01s CPU      0.01s WALL (       4 calls)
     add_vuspsi   :      0.50s CPU      0.52s WALL (   36857 calls)
 
     PRINTING TIMING FROM HP ROUTINES: 
 
     hp_setup_q   :      0.09s CPU      0.11s WALL (       4 calls)
     hp_init_q    :      0.12s CPU      0.13s WALL (       4 calls)
     hp_solve_lin :     75.68s CPU     78.49s WALL (       4 calls)
     hp_dvpsi_per :      0.01s CPU      0.01s WALL (      64 calls)
     hp_dnsq      :      0.13s CPU      0.14s WALL (      76 calls)
     hp_symdnsq   :      0.01s CPU      0.01s WALL (      76 calls)
     hp_dnstot_su :      0.00s CPU      0.00s WALL (       1 calls)
     hp_rotate_dn :      0.00s CPU      0.00s WALL (       8 calls)
     hp_calc_chi  :      0.00s CPU      0.00s WALL (       1 calls)
     hp_postproc  :      0.00s CPU      0.00s WALL (       1 calls)
     ef_shift     :      0.01s CPU      0.01s WALL (      22 calls)
     hp_run_nscf  :      6.59s CPU      8.19s WALL (       3 calls)
     hp_postproc  :      0.00s CPU      0.00s WALL (       1 calls)
     hp_psymdvscf :      5.86s CPU      6.16s WALL (      76 calls)
 
     PRINTING TIMING FROM LR MODULE: 
 
     sth_kernel   :     60.55s CPU     62.76s WALL (      76 calls)
     apply_dpot_b :      2.75s CPU      2.87s WALL (    1120 calls)
     ortho        :      0.33s CPU      0.34s WALL (    1184 calls)
     cgsolve      :     53.61s CPU     55.48s WALL (    1184 calls)
     ch_psi       :     52.43s CPU     54.25s WALL (   35205 calls)
     incdrhoscf   :      3.60s CPU      3.77s WALL (    1184 calls)
                                        0.00s GPU  (    1184 calls)
     localdos     :      0.03s CPU      0.03s WALL (       1 calls)
     dv_of_drho   :      0.35s CPU      0.35s WALL (      76 calls)
     mix_pot      :      0.26s CPU      0.46s WALL (      76 calls)
     setup_dgc    :      0.07s CPU      0.08s WALL (       4 calls)
     setup_dmuxc  :      0.02s CPU      0.02s WALL (       4 calls)
     setup_nbnd_o :      0.00s CPU      0.00s WALL (       4 calls)
     lr_orthoUwfc :      0.08s CPU      0.09s WALL (       4 calls)
     cft_wave     :      2.63s CPU      2.74s WALL (   53760 calls)
 
     USPP ROUTINES: 
 
     newdq        :      0.34s CPU      0.34s WALL (      76 calls)
     adddvscf     :      0.12s CPU      0.12s WALL (    1120 calls)
     addusdbec    :      0.15s CPU      0.16s WALL (    1184 calls)
     addusldos    :      0.00s CPU      0.00s WALL (       1 calls)
 
     HP           :   1m22.84s CPU   1m27.53s WALL

 
   This run was terminated on:  13:33:43  23Jun2024            

=------------------------------------------------------------------------------=
   JOB DONE.
=------------------------------------------------------------------------------=
