
     Program PWSCF v.7.2 starts on 23Jun2024 at 13:32:10 

     This program is part of the open-source Quantum ESPRESSO suite
     for quantum simulation of materials; please cite
         "P. Giannozzi et al., J. Phys.:Condens. Matter 21 395502 (2009);
         "P. Giannozzi et al., J. Phys.:Condens. Matter 29 465901 (2017);
         "P. Giannozzi et al., J. Chem. Phys. 152 154105 (2020);
          URL http://www.quantum-espresso.org", 
     in publications or presentations arising from this work. More details at
     http://www.quantum-espresso.org/quote

     Parallel version (MPI), running on    32 processors

     MPI processes distributed on     1 nodes
     237597 MiB available memory on the printing compute node when the environment starts
 
     Waiting for input...
     Reading input from standard input

     Current dimensions of program PWSCF are:
     Max number of different atomic species (ntypx) = 10
     Max number of k-points (npk) =  40000
     Max angular momentum in pseudopotentials (lmaxx) =  4
     Message from routine volume:
     axis vectors are left-handed
     file O.pbesol-n-kjpaw_psl.0.1.UPF: wavefunction(s)  2P renormalized
     Message from routine setup:
     using ibrav=0 with symmetry is DISCOURAGED, use correct ibrav instead
 
     K-points division:     npool     =       2
     R & G space division:  proc/nbgrp/npool/nimage =      16
     Subspace diagonalization in iterative solution of the eigenvalue problem:
     a serial algorithm will be used

 
     Parallelization info
     --------------------
     sticks:   dense  smooth     PW     G-vecs:    dense   smooth      PW
     Min          72      36     12                 1159      408      79
     Max          73      37     13                 1162      409      81
     Sum        1167     587    195                18569     6541    1269
 
     Using Slab Decomposition
 


     bravais-lattice index     =            0
     lattice parameter (alat)  =       8.0000  a.u.
     unit-cell volume          =     235.7543 (a.u.)^3
     number of atoms/cell      =            4
     number of atomic types    =            3
     number of electrons       =        46.00
     number of Kohn-Sham states=           28
     kinetic-energy cutoff     =      35.0000  Ry
     charge density cutoff     =     280.0000  Ry
     scf convergence threshold =      1.0E-10
     mixing beta               =       0.7000
     number of iterations used =            8  plain     mixing
     Exchange-correlation= SLA  PW   PSX  PSC
                           (   1   4  10   8   0   0   0)
     Hubbard projectors: ortho-atomic
     Hubbard parameters of DFT+U (Dudarev formulation) in eV:
     U(Co1-3d) =  0.0001
     U(Co2-3d) =  0.0001

     Internal variables: lda_plus_u = T, lda_plus_u_kind = 0

     celldm(1)=   8.000000  celldm(2)=   0.000000  celldm(3)=   0.000000
     celldm(4)=   0.000000  celldm(5)=   0.000000  celldm(6)=   0.000000

     crystal axes: (cart. coord. in units of alat)
               a(1) = (   0.570726   0.570726   1.031099 )  
               a(2) = (   0.570726   1.031099   0.570726 )  
               a(3) = (   1.031099   0.570726   0.570726 )  

     reciprocal axes: (cart. coord. in units 2 pi/alat)
               b(1) = ( -0.570621 -0.570621  1.601531 )  
               b(2) = ( -0.570621  1.601531 -0.570621 )  
               b(3) = (  1.601531 -0.570621 -0.570621 )  


     PseudoPot. # 1 for Co read from file:
     ./co_pbesol_v1.2.uspp.F.UPF
     MD5 check sum: 3b4cd4e7cc7df4da9fdede0fd33e2193
     Pseudo is Ultrasoft + core correction, Zval = 17.0
     Generated by new atomic code, or converted to UPF format
     Using radial grid of  863 points,  6 beta functions with: 
                l(1) =   0
                l(2) =   0
                l(3) =   1
                l(4) =   1
                l(5) =   2
                l(6) =   2
     Q(r) pseudized with  8 coefficients,  rinner =    1.200   1.200   1.200
                                                       1.200   1.200

     PseudoPot. # 2 for Co read from file:
     ./co_pbesol_v1.2.uspp.F.UPF
     MD5 check sum: 3b4cd4e7cc7df4da9fdede0fd33e2193
     Pseudo is Ultrasoft + core correction, Zval = 17.0
     Generated by new atomic code, or converted to UPF format
     Using radial grid of  863 points,  6 beta functions with: 
                l(1) =   0
                l(2) =   0
                l(3) =   1
                l(4) =   1
                l(5) =   2
                l(6) =   2
     Q(r) pseudized with  8 coefficients,  rinner =    1.200   1.200   1.200
                                                       1.200   1.200

     PseudoPot. # 3 for O  read from file:
     ./O.pbesol-n-kjpaw_psl.0.1.UPF
     MD5 check sum: 126339daddaa87477ab44acfa0b5aa00
     Pseudo is Projector augmented-wave + core cor, Zval =  6.0
     Generated using "atomic" code by A. Dal Corso  v.6.0 svn rev. 13079
     Shape of augmentation charge: BESSEL
     Using radial grid of 1095 points,  4 beta functions with: 
                l(1) =   0
                l(2) =   0
                l(3) =   1
                l(4) =   1
     Q(r) pseudized with 0 coefficients 


     atomic species   valence    mass     pseudopotential
        Co1           17.00    58.93319     Co( 1.00)
        Co2           17.00    58.93319     Co( 1.00)
        O              6.00    15.99900     O ( 1.00)

     Starting magnetic structure 
     atomic species   magnetization
        Co1          0.500
        Co2         -0.500
        O            0.000

     12 Sym. Ops., with inversion, found


                                    s                        frac. trans.

      isym =  1     identity                                     

 cryst.   s( 1) = (     1          0          0      )
                  (     0          1          0      )
                  (     0          0          1      )

 cart.    s( 1) = (  1.0000000  0.0000000  0.0000000 )
                  (  0.0000000  1.0000000  0.0000000 )
                  (  0.0000000  0.0000000  1.0000000 )


      isym =  2     180 deg rotation - cart. axis [1,-1,0]       

 cryst.   s( 2) = (    -1          0          0      )
                  (     0          0         -1      )
                  (     0         -1          0      )

 cart.    s( 2) = ( -0.0000000 -1.0000000 -0.0000000 )
                  ( -1.0000000 -0.0000000 -0.0000000 )
                  ( -0.0000000 -0.0000000 -1.0000000 )


      isym =  3     180 deg rotation - cart. axis [-1,0,1]       

 cryst.   s( 3) = (     0          0         -1      )
                  (     0         -1          0      )
                  (    -1          0          0      )

 cart.    s( 3) = ( -0.0000000 -0.0000000 -1.0000000 )
                  ( -0.0000000 -1.0000000 -0.0000000 )
                  ( -1.0000000 -0.0000000 -0.0000000 )


      isym =  4     180 deg rotation - cart. axis [0,1,-1]       

 cryst.   s( 4) = (     0         -1          0      )
                  (    -1          0          0      )
                  (     0          0         -1      )

 cart.    s( 4) = ( -1.0000000 -0.0000000 -0.0000000 )
                  ( -0.0000000 -0.0000000 -1.0000000 )
                  ( -0.0000000 -1.0000000 -0.0000000 )


      isym =  5     120 deg rotation - cart. axis [-1,-1,-1]     

 cryst.   s( 5) = (     0          1          0      )
                  (     0          0          1      )
                  (     1          0          0      )

 cart.    s( 5) = (  0.0000000  1.0000000  0.0000000 )
                  (  0.0000000  0.0000000  1.0000000 )
                  (  1.0000000  0.0000000  0.0000000 )


      isym =  6     120 deg rotation - cart. axis [1,1,1]        

 cryst.   s( 6) = (     0          0          1      )
                  (     1          0          0      )
                  (     0          1          0      )

 cart.    s( 6) = (  0.0000000  0.0000000  1.0000000 )
                  (  1.0000000  0.0000000  0.0000000 )
                  (  0.0000000  1.0000000  0.0000000 )


      isym =  7     inversion                                    

 cryst.   s( 7) = (    -1          0          0      )
                  (     0         -1          0      )
                  (     0          0         -1      )

 cart.    s( 7) = ( -1.0000000 -0.0000000 -0.0000000 )
                  ( -0.0000000 -1.0000000 -0.0000000 )
                  ( -0.0000000 -0.0000000 -1.0000000 )


      isym =  8     inv. 180 deg rotation - cart. axis [1,-1,0]  

 cryst.   s( 8) = (     1          0          0      )
                  (     0          0          1      )
                  (     0          1          0      )

 cart.    s( 8) = (  0.0000000  1.0000000  0.0000000 )
                  (  1.0000000  0.0000000  0.0000000 )
                  (  0.0000000  0.0000000  1.0000000 )


      isym =  9     inv. 180 deg rotation - cart. axis [-1,0,1]  

 cryst.   s( 9) = (     0          0          1      )
                  (     0          1          0      )
                  (     1          0          0      )

 cart.    s( 9) = (  0.0000000  0.0000000  1.0000000 )
                  (  0.0000000  1.0000000  0.0000000 )
                  (  1.0000000  0.0000000  0.0000000 )


      isym = 10     inv. 180 deg rotation - cart. axis [0,1,-1]  

 cryst.   s(10) = (     0          1          0      )
                  (     1          0          0      )
                  (     0          0          1      )

 cart.    s(10) = (  1.0000000  0.0000000  0.0000000 )
                  (  0.0000000  0.0000000  1.0000000 )
                  (  0.0000000  1.0000000  0.0000000 )


      isym = 11     inv. 120 deg rotation - cart. axis [-1,-1,-1]

 cryst.   s(11) = (     0         -1          0      )
                  (     0          0         -1      )
                  (    -1          0          0      )

 cart.    s(11) = ( -0.0000000 -1.0000000 -0.0000000 )
                  ( -0.0000000 -0.0000000 -1.0000000 )
                  ( -1.0000000 -0.0000000 -0.0000000 )


      isym = 12     inv. 120 deg rotation - cart. axis [1,1,1]   

 cryst.   s(12) = (     0          0         -1      )
                  (    -1          0          0      )
                  (     0         -1          0      )

 cart.    s(12) = ( -0.0000000 -0.0000000 -1.0000000 )
                  ( -1.0000000 -0.0000000 -0.0000000 )
                  ( -0.0000000 -1.0000000 -0.0000000 )


   Cartesian axes

     site n.     atom                  positions (alat units)
         1           Co1 tau(   1) = (   0.0000000   0.0000000   0.0000000  )
         2           Co2 tau(   2) = (   1.0862757   1.0862757   1.0862757  )
         3           O   tau(   3) = (   0.5431378   0.5431378   0.5431378  )
         4           O   tau(   4) = (   1.6294135   1.6294135   1.6294135  )

   Crystallographic axes

     site n.     atom                  positions (cryst. coord.)
         1           Co1 tau(   1) = (  0.0000000  0.0000000  0.0000000  )
         2           Co2 tau(   2) = (  0.5000000  0.5000000  0.5000000  )
         3           O   tau(   3) = (  0.2500000  0.2500000  0.2500000  )
         4           O   tau(   4) = (  0.7500000  0.7500000  0.7500000  )

     number of k points=     6  Marzari-Vanderbilt smearing, width (Ry)=  0.0200
                       cart. coord. in units 2pi/alat
        k(    1) = (   0.0000000   0.0000000   0.0000000), wk =   0.0370370
        k(    2) = (   0.5338435  -0.1902071  -0.1902071), wk =   0.2222222
        k(    3) = (   0.3436365   0.3436365  -0.3804141), wk =   0.2222222
        k(    4) = (  -0.7240506   0.7240506   0.0000000), wk =   0.2222222
        k(    5) = (   0.1534294   0.1534294   0.1534294), wk =   0.0740741
        k(    6) = (  -0.9142576   0.5338435   0.5338435), wk =   0.2222222

                       cryst. coord.
        k(    1) = (   0.0000000   0.0000000   0.0000000), wk =   0.0370370
        k(    2) = (   0.0000000   0.0000000   0.3333333), wk =   0.2222222
        k(    3) = (   0.0000000   0.3333333   0.3333333), wk =   0.2222222
        k(    4) = (   0.0000000   0.3333333  -0.3333333), wk =   0.2222222
        k(    5) = (   0.3333333   0.3333333   0.3333333), wk =   0.0740741
        k(    6) = (   0.3333333   0.3333333  -0.3333333), wk =   0.2222222

     Dense  grid:    18569 G-vectors     FFT dimensions: (  60,  60,  60)

     Smooth grid:     6541 G-vectors     FFT dimensions: (  40,  40,  40)

     Dynamical RAM for                 wfc:       0.02 MB

     Dynamical RAM for     wfc (w. buffer):       0.15 MB

     Dynamical RAM for             U proj.:       0.01 MB

     Dynamical RAM for  U proj. (w. buff.):       0.05 MB

     Dynamical RAM for           str. fact:       0.05 MB

     Dynamical RAM for           local pot:       0.00 MB

     Dynamical RAM for          nlocal pot:       0.04 MB

     Dynamical RAM for                qrad:       4.03 MB

     Dynamical RAM for          rho,v,vnew:       0.77 MB

     Dynamical RAM for               rhoin:       0.26 MB

     Dynamical RAM for            rho*nmix:       0.57 MB

     Dynamical RAM for           G-vectors:       0.07 MB

     Dynamical RAM for          h,s,v(r/c):       0.14 MB

     Dynamical RAM for          <psi|beta>:       0.02 MB

     Dynamical RAM for                 psi:       0.04 MB

     Dynamical RAM for                hpsi:       0.04 MB

     Dynamical RAM for                spsi:       0.04 MB

     Dynamical RAM for      wfcinit/wfcrot:       0.08 MB

     Dynamical RAM for           addusdens:       1.69 MB

     Estimated static dynamical RAM per process >       6.15 MB

     Estimated max dynamical RAM per process >       8.41 MB

     Estimated total dynamical RAM >     260.11 MB

     Check: negative core charge=   -0.000041
     Generating pointlists ...
     new r_m :   0.2019 (alat units)  1.6154 (a.u.) for type    1
     new r_m :   0.2019 (alat units)  1.6154 (a.u.) for type    2
     new r_m :   0.2019 (alat units)  1.6154 (a.u.) for type    3

     Initial potential from superposition of free atoms

     starting charge      44.0000, renormalised to      46.0000

     HUBBARD ENERGY =    0.0000  (Ry)

     STARTING HUBBARD OCCUPATIONS:

     =================== HUBBARD OCCUPATIONS ===================
     ------------------------ ATOM    1 ------------------------
     Tr[ns(  1)] (up, down, total) =   5.00000  2.00000  7.00000
     Atomic magnetic moment for atom   1 =   3.00000
     SPIN  1
     eigenvalues:
       1.000  1.000  1.000  1.000  1.000
     eigenvectors (columns):
       1.000  0.000  0.000  0.000  0.000
       0.000  1.000  0.000  0.000  0.000
       0.000  0.000  1.000  0.000  0.000
       0.000  0.000  0.000  1.000  0.000
       0.000  0.000  0.000  0.000  1.000
     occupation matrix ns (before diag.):
       1.000  0.000  0.000  0.000  0.000
       0.000  1.000  0.000  0.000  0.000
       0.000  0.000  1.000  0.000  0.000
       0.000  0.000  0.000  1.000  0.000
       0.000  0.000  0.000  0.000  1.000
     SPIN  2
     eigenvalues:
       0.400  0.400  0.400  0.400  0.400
     eigenvectors (columns):
       1.000  0.000  0.000  0.000  0.000
       0.000  1.000  0.000  0.000  0.000
       0.000  0.000  1.000  0.000  0.000
       0.000  0.000  0.000  1.000  0.000
       0.000  0.000  0.000  0.000  1.000
     occupation matrix ns (before diag.):
       0.400  0.000  0.000  0.000  0.000
       0.000  0.400  0.000  0.000  0.000
       0.000  0.000  0.400  0.000  0.000
       0.000  0.000  0.000  0.400  0.000
       0.000  0.000  0.000  0.000  0.400
     ------------------------ ATOM    2 ------------------------
     Tr[ns(  2)] (up, down, total) =   2.00000  5.00000  7.00000
     Atomic magnetic moment for atom   2 =  -3.00000
     SPIN  1
     eigenvalues:
       0.400  0.400  0.400  0.400  0.400
     eigenvectors (columns):
       1.000  0.000  0.000  0.000  0.000
       0.000  1.000  0.000  0.000  0.000
       0.000  0.000  1.000  0.000  0.000
       0.000  0.000  0.000  1.000  0.000
       0.000  0.000  0.000  0.000  1.000
     occupation matrix ns (before diag.):
       0.400  0.000  0.000  0.000  0.000
       0.000  0.400  0.000  0.000  0.000
       0.000  0.000  0.400  0.000  0.000
       0.000  0.000  0.000  0.400  0.000
       0.000  0.000  0.000  0.000  0.400
     SPIN  2
     eigenvalues:
       1.000  1.000  1.000  1.000  1.000
     eigenvectors (columns):
       1.000  0.000  0.000  0.000  0.000
       0.000  1.000  0.000  0.000  0.000
       0.000  0.000  1.000  0.000  0.000
       0.000  0.000  0.000  1.000  0.000
       0.000  0.000  0.000  0.000  1.000
     occupation matrix ns (before diag.):
       1.000  0.000  0.000  0.000  0.000
       0.000  1.000  0.000  0.000  0.000
       0.000  0.000  1.000  0.000  0.000
       0.000  0.000  0.000  1.000  0.000
       0.000  0.000  0.000  0.000  1.000

     Number of occupied Hubbard levels =   14.0000

     Atomic wfc used for Hubbard projectors are orthogonalized

     Starting wfcs are   34 randomized atomic wfcs
     Checking if some PAW data can be deallocated... 
       PAW data deallocated on   16 nodes for type:  3

     total cpu time spent up to now is        0.4 secs

     Self-consistent Calculation

     iteration #  1     ecut=    35.00 Ry     beta= 0.70
     Davidson diagonalization with overlap

---- Real-time Memory Report at c_bands before calling an iterative solver
           115 MiB given to the printing process from OS
             0 MiB allocation reported by mallinfo(arena+hblkhd)
        236783 MiB available memory on the node where the printing process lives
------------------
     ethr =  1.00E-02,  avg # of iterations =  3.0

     =================== HUBBARD OCCUPATIONS ===================
     ------------------------ ATOM    1 ------------------------
     Tr[ns(  1)] (up, down, total) =   4.74511  0.74971  5.49482
     Atomic magnetic moment for atom   1 =   3.99540
     SPIN  1
     eigenvalues:
       0.928  0.928  0.947  0.971  0.971
     eigenvectors (columns):
      -0.193  0.045 -0.000 -0.640 -0.742
      -0.546 -0.585 -0.577 -0.053  0.153
      -0.234  0.765 -0.577  0.159 -0.030
      -0.045 -0.193  0.000  0.742 -0.640
      -0.780  0.180  0.577  0.106  0.123
     occupation matrix ns (before diag.):
       0.970 -0.003 -0.003  0.000 -0.007
      -0.003  0.935  0.006 -0.006 -0.006
      -0.003  0.006  0.935  0.006 -0.006
       0.000 -0.006  0.006  0.970 -0.000
      -0.007 -0.006 -0.006 -0.000  0.935
     SPIN  2
     eigenvalues:
       0.057  0.057  0.184  0.226  0.226
     eigenvectors (columns):
       0.689  0.710  0.000  0.141  0.031
       0.032 -0.113 -0.577  0.543 -0.598
      -0.114  0.029 -0.577  0.247  0.769
      -0.710  0.689 -0.000  0.031 -0.141
      -0.082 -0.085  0.577  0.790  0.171
     occupation matrix ns (before diag.):
       0.060  0.010  0.010  0.000  0.020
       0.010  0.210 -0.013  0.017  0.013
       0.010 -0.013  0.210 -0.017  0.013
       0.000  0.017 -0.017  0.060 -0.000
       0.020  0.013  0.013 -0.000  0.210
     ------------------------ ATOM    2 ------------------------
     Tr[ns(  2)] (up, down, total) =   0.74919  4.74573  5.49491
     Atomic magnetic moment for atom   2 =  -3.99654
     SPIN  1
     eigenvalues:
       0.057  0.057  0.184  0.226  0.226
     eigenvectors (columns):
       0.686 -0.713  0.000  0.141  0.031
       0.033  0.113 -0.577  0.544 -0.597
      -0.114 -0.028 -0.577  0.246  0.770
      -0.713 -0.686 -0.000  0.031 -0.141
      -0.082  0.085  0.577  0.789  0.172
     occupation matrix ns (before diag.):
       0.060  0.010  0.010  0.000  0.020
       0.010  0.210 -0.013  0.017  0.013
       0.010 -0.013  0.210 -0.017  0.013
       0.000  0.017 -0.017  0.060 -0.000
       0.020  0.013  0.013 -0.000  0.210
     SPIN  2
     eigenvalues:
       0.928  0.928  0.947  0.971  0.971
     eigenvectors (columns):
      -0.194  0.046 -0.000 -0.655 -0.728
      -0.549 -0.582 -0.577 -0.050  0.155
      -0.230  0.766 -0.577  0.159 -0.034
      -0.046 -0.194  0.000  0.728 -0.655
      -0.779  0.184  0.577  0.109  0.121
     occupation matrix ns (before diag.):
       0.970 -0.003 -0.003  0.000 -0.007
      -0.003  0.935  0.006 -0.006 -0.006
      -0.003  0.006  0.935  0.006 -0.006
       0.000 -0.006  0.006  0.970 -0.000
      -0.007 -0.006 -0.006 -0.000  0.935

     Number of occupied Hubbard levels =   10.9897

     HUBBARD ENERGY =    0.0000  (Ry)

     total cpu time spent up to now is        0.6 secs

     total energy              =    -671.00051698 Ry
     estimated scf accuracy    <      13.20823061 Ry

     total magnetization       =    -0.00 Bohr mag/cell
     absolute magnetization    =     8.36 Bohr mag/cell

     iteration #  2     ecut=    35.00 Ry     beta= 0.70
     Davidson diagonalization with overlap

---- Real-time Memory Report at c_bands before calling an iterative solver
           119 MiB given to the printing process from OS
             0 MiB allocation reported by mallinfo(arena+hblkhd)
        236717 MiB available memory on the node where the printing process lives
------------------
     ethr =  1.00E-02,  avg # of iterations =  3.2

     =================== HUBBARD OCCUPATIONS ===================
     ------------------------ ATOM    1 ------------------------
     Tr[ns(  1)] (up, down, total) =   4.84322  4.88546  9.72868
     Atomic magnetic moment for atom   1 =  -0.04224
     SPIN  1
     eigenvalues:
       0.967  0.967  0.967  0.971  0.971
     eigenvectors (columns):
       0.000 -0.214  0.031 -0.744 -0.632
       0.577  0.296 -0.740  0.032 -0.174
       0.577  0.493  0.627 -0.166  0.059
      -0.000  0.031  0.214  0.632 -0.744
      -0.577  0.789 -0.113 -0.134 -0.114
     occupation matrix ns (before diag.):
       0.971  0.000  0.000  0.000  0.001
       0.000  0.967 -0.000  0.001  0.000
       0.000 -0.000  0.967 -0.001  0.000
       0.000  0.001 -0.001  0.971 -0.000
       0.001  0.000  0.000 -0.000  0.967
     SPIN  2
     eigenvalues:
       0.976  0.976  0.976  0.978  0.978
     eigenvectors (columns):
       0.476 -0.451  0.000  0.744  0.127
       0.143  0.600 -0.577  0.342 -0.412
      -0.591 -0.176 -0.577  0.186  0.502
      -0.451 -0.476 -0.000  0.127 -0.744
      -0.448  0.424  0.577  0.528  0.090
     occupation matrix ns (before diag.):
       0.977  0.000  0.000  0.000  0.001
       0.000  0.977 -0.000  0.001  0.000
       0.000 -0.000  0.977 -0.001  0.000
       0.000  0.001 -0.001  0.977 -0.000
       0.001  0.000  0.000 -0.000  0.977
     ------------------------ ATOM    2 ------------------------
     Tr[ns(  2)] (up, down, total) =   4.88555  4.84332  9.72887
     Atomic magnetic moment for atom   2 =   0.04224
     SPIN  1
     eigenvalues:
       0.976  0.976  0.976  0.978  0.978
     eigenvectors (columns):
       0.498 -0.428  0.000  0.737  0.162
       0.114  0.605 -0.577  0.362 -0.396
      -0.581 -0.204 -0.577  0.162  0.511
      -0.428 -0.498 -0.000  0.162 -0.737
      -0.467  0.402  0.577  0.523  0.115
     occupation matrix ns (before diag.):
       0.977  0.000  0.000  0.000  0.001
       0.000  0.977 -0.000  0.001  0.000
       0.000 -0.000  0.977 -0.001  0.000
       0.000  0.001 -0.001  0.977 -0.000
       0.001  0.000  0.000 -0.000  0.977
     SPIN  2
     eigenvalues:
       0.967  0.967  0.967  0.971  0.971
     eigenvectors (columns):
       0.000 -0.214  0.030 -0.771 -0.598
       0.577  0.299 -0.739  0.024 -0.175
       0.577  0.491  0.628 -0.164  0.067
      -0.000  0.030  0.214  0.598 -0.771
      -0.577  0.789 -0.111 -0.140 -0.108
     occupation matrix ns (before diag.):
       0.971  0.000  0.000  0.000  0.001
       0.000  0.967 -0.000  0.001  0.000
       0.000 -0.000  0.967 -0.001  0.000
       0.000  0.001 -0.001  0.971 -0.000
       0.001  0.000  0.000 -0.000  0.967

     Number of occupied Hubbard levels =   19.4576

     HUBBARD ENERGY =    0.0000  (Ry)

     total cpu time spent up to now is        0.8 secs

     total energy              =    -672.97104019 Ry
     estimated scf accuracy    <      60.21421434 Ry

     total magnetization       =    -0.00 Bohr mag/cell
     absolute magnetization    =     0.59 Bohr mag/cell

     iteration #  3     ecut=    35.00 Ry     beta= 0.70
     Davidson diagonalization with overlap

---- Real-time Memory Report at c_bands before calling an iterative solver
           120 MiB given to the printing process from OS
             0 MiB allocation reported by mallinfo(arena+hblkhd)
        236719 MiB available memory on the node where the printing process lives
------------------
     ethr =  1.00E-02,  avg # of iterations =  2.8

     =================== HUBBARD OCCUPATIONS ===================
     ------------------------ ATOM    1 ------------------------
     Tr[ns(  1)] (up, down, total) =   4.94652  2.43716  7.38368
     Atomic magnetic moment for atom   1 =   2.50935
     SPIN  1
     eigenvalues:
       0.982  0.982  0.994  0.995  0.995
     eigenvectors (columns):
      -0.722 -0.691  0.000 -0.030  0.003
       0.006 -0.024 -0.577  0.472  0.666
      -0.024  0.007 -0.577  0.341 -0.742
       0.691 -0.722 -0.000 -0.003 -0.030
      -0.018 -0.017  0.577  0.813 -0.076
     occupation matrix ns (before diag.):
       0.982 -0.000 -0.000  0.000 -0.000
      -0.000  0.994 -0.000 -0.000  0.000
      -0.000 -0.000  0.994  0.000  0.000
       0.000 -0.000  0.000  0.982 -0.000
      -0.000  0.000  0.000 -0.000  0.994
     SPIN  2
     eigenvalues:
       0.219  0.219  0.626  0.686  0.686
     eigenvectors (columns):
      -0.707  0.707  0.000  0.028  0.003
      -0.006 -0.022 -0.577  0.491 -0.652
       0.022  0.006 -0.577  0.319  0.751
       0.707  0.707 -0.000  0.003 -0.028
       0.016 -0.016  0.577  0.810  0.099
     occupation matrix ns (before diag.):
       0.220  0.005  0.005  0.000  0.011
       0.005  0.666 -0.020  0.009  0.020
       0.005 -0.020  0.666 -0.009  0.020
       0.000  0.009 -0.009  0.220 -0.000
       0.011  0.020  0.020 -0.000  0.666
     ------------------------ ATOM    2 ------------------------
     Tr[ns(  2)] (up, down, total) =   2.42773  4.94643  7.37416
     Atomic magnetic moment for atom   2 =  -2.51870
     SPIN  1
     eigenvalues:
       0.219  0.219  0.622  0.684  0.684
     eigenvectors (columns):
      -0.687  0.726  0.000  0.027  0.004
      -0.006 -0.021 -0.577  0.505 -0.641
       0.022  0.005 -0.577  0.303  0.758
       0.726  0.687 -0.000  0.004 -0.027
       0.015 -0.016  0.577  0.808  0.117
     occupation matrix ns (before diag.):
       0.219  0.005  0.005  0.000  0.010
       0.005  0.663 -0.021  0.009  0.021
       0.005 -0.021  0.663 -0.009  0.021
       0.000  0.009 -0.009  0.219 -0.000
       0.010  0.021  0.021 -0.000  0.663
     SPIN  2
     eigenvalues:
       0.982  0.982  0.994  0.995  0.995
     eigenvectors (columns):
      -0.745 -0.666  0.000 -0.030  0.002
       0.005 -0.024 -0.577  0.463  0.672
      -0.024  0.008 -0.577  0.350 -0.737
       0.666 -0.745 -0.000 -0.002 -0.030
      -0.018 -0.016  0.577  0.813 -0.065
     occupation matrix ns (before diag.):
       0.982 -0.000 -0.000  0.000 -0.000
      -0.000  0.994 -0.000 -0.000  0.000
      -0.000 -0.000  0.994  0.000  0.000
       0.000 -0.000  0.000  0.982 -0.000
      -0.000  0.000  0.000 -0.000  0.994

     Number of occupied Hubbard levels =   14.7578

     HUBBARD ENERGY =    0.0000  (Ry)

     total cpu time spent up to now is        0.9 secs

     total energy              =    -678.64017825 Ry
     estimated scf accuracy    <       0.34789815 Ry

     total magnetization       =    -0.01 Bohr mag/cell
     absolute magnetization    =     5.33 Bohr mag/cell

     iteration #  4     ecut=    35.00 Ry     beta= 0.70
     Davidson diagonalization with overlap

---- Real-time Memory Report at c_bands before calling an iterative solver
           121 MiB given to the printing process from OS
             0 MiB allocation reported by mallinfo(arena+hblkhd)
        236718 MiB available memory on the node where the printing process lives
------------------
     ethr =  7.56E-04,  avg # of iterations =  2.2

     =================== HUBBARD OCCUPATIONS ===================
     ------------------------ ATOM    1 ------------------------
     Tr[ns(  1)] (up, down, total) =   4.88849  2.36371  7.25220
     Atomic magnetic moment for atom   1 =   2.52478
     SPIN  1
     eigenvalues:
       0.963  0.963  0.986  0.988  0.988
     eigenvectors (columns):
       0.688  0.726  0.000  0.004  0.000
       0.001 -0.003 -0.577  0.480 -0.660
      -0.003  0.001 -0.577  0.332  0.746
      -0.726  0.688 -0.000  0.000 -0.004
      -0.002 -0.002  0.577  0.812  0.086
     occupation matrix ns (before diag.):
       0.963  0.000  0.000  0.000  0.000
       0.000  0.987 -0.001  0.000  0.001
       0.000 -0.001  0.987 -0.000  0.001
       0.000  0.000 -0.000  0.963 -0.000
       0.000  0.001  0.001 -0.000  0.987
     SPIN  2
     eigenvalues:
       0.267  0.267  0.534  0.648  0.648
     eigenvectors (columns):
      -0.722  0.692  0.000  0.001  0.000
      -0.000 -0.001 -0.577  0.487 -0.655
       0.001  0.000 -0.577  0.324  0.750
       0.692  0.722 -0.000  0.000 -0.001
       0.001 -0.001  0.577  0.811  0.095
     occupation matrix ns (before diag.):
       0.267  0.000  0.000  0.000  0.000
       0.000  0.610 -0.038  0.000  0.038
       0.000 -0.038  0.610 -0.000  0.038
       0.000  0.000 -0.000  0.267 -0.000
       0.000  0.038  0.038 -0.000  0.610
     ------------------------ ATOM    2 ------------------------
     Tr[ns(  2)] (up, down, total) =   2.78022  4.89586  7.67608
     Atomic magnetic moment for atom   2 =  -2.11564
     SPIN  1
     eigenvalues:
       0.286  0.286  0.680  0.764  0.764
     eigenvectors (columns):
      -0.698  0.715  0.000  0.038  0.004
      -0.008 -0.030 -0.577  0.480 -0.660
       0.030  0.008 -0.577  0.331  0.746
       0.715  0.698 -0.000  0.004 -0.038
       0.022 -0.022  0.577  0.811  0.086
     occupation matrix ns (before diag.):
       0.287  0.007  0.007  0.000  0.015
       0.007  0.735 -0.028  0.013  0.028
       0.007 -0.028  0.735 -0.013  0.028
       0.000  0.013 -0.013  0.287 -0.000
       0.015  0.028  0.028 -0.000  0.735
     SPIN  2
     eigenvalues:
       0.966  0.966  0.986  0.989  0.989
     eigenvectors (columns):
      -0.713  0.701  0.000 -0.008 -0.001
       0.002  0.006 -0.577  0.480 -0.661
      -0.006 -0.002 -0.577  0.332  0.746
       0.701  0.713 -0.000 -0.001  0.008
      -0.005  0.005  0.577  0.812  0.085
     occupation matrix ns (before diag.):
       0.966 -0.000 -0.000  0.000 -0.000
      -0.000  0.988 -0.001 -0.000  0.001
      -0.000 -0.001  0.988  0.000  0.001
       0.000 -0.000  0.000  0.966 -0.000
      -0.000  0.001  0.001 -0.000  0.988

     Number of occupied Hubbard levels =   14.9283

     HUBBARD ENERGY =    0.0000  (Ry)

     total cpu time spent up to now is        1.1 secs

     total energy              =    -678.64841254 Ry
     estimated scf accuracy    <       0.22690922 Ry

     total magnetization       =     0.43 Bohr mag/cell
     absolute magnetization    =     4.93 Bohr mag/cell

     iteration #  5     ecut=    35.00 Ry     beta= 0.70
     Davidson diagonalization with overlap

---- Real-time Memory Report at c_bands before calling an iterative solver
           121 MiB given to the printing process from OS
             0 MiB allocation reported by mallinfo(arena+hblkhd)
        236718 MiB available memory on the node where the printing process lives
------------------
     ethr =  4.93E-04,  avg # of iterations =  2.3

     =================== HUBBARD OCCUPATIONS ===================
     ------------------------ ATOM    1 ------------------------
     Tr[ns(  1)] (up, down, total) =   4.96166  4.66236  9.62402
     Atomic magnetic moment for atom   1 =   0.29929
     SPIN  1
     eigenvalues:
       0.991  0.991  0.992  0.994  0.994
     eigenvectors (columns):
      -0.853 -0.118 -0.000  0.411 -0.300
      -0.156 -0.385  0.577  0.075  0.699
      -0.255  0.328  0.577 -0.643 -0.284
       0.118 -0.853  0.000 -0.300 -0.411
      -0.411 -0.057 -0.577 -0.568  0.415
     occupation matrix ns (before diag.):
       0.992 -0.001 -0.001  0.000 -0.001
      -0.001  0.993 -0.000 -0.001  0.000
      -0.001 -0.000  0.993  0.001  0.000
       0.000 -0.001  0.001  0.992 -0.000
      -0.001  0.000  0.000 -0.000  0.993
     SPIN  2
     eigenvalues:
       0.862  0.862  0.977  0.980  0.980
     eigenvectors (columns):
       0.716 -0.698  0.000  0.010  0.001
       0.002  0.008 -0.577  0.490 -0.653
      -0.008 -0.002 -0.577  0.321  0.751
      -0.698 -0.716 -0.000  0.001 -0.010
      -0.006  0.006  0.577  0.811  0.098
     occupation matrix ns (before diag.):
       0.862  0.000  0.000  0.000  0.001
       0.000  0.979 -0.001  0.001  0.001
       0.000 -0.001  0.979 -0.001  0.001
       0.000  0.001 -0.001  0.862 -0.000
       0.001  0.001  0.001 -0.000  0.979
     ------------------------ ATOM    2 ------------------------
     Tr[ns(  2)] (up, down, total) =   0.93314  4.07562  5.00875
     Atomic magnetic moment for atom   2 =  -3.14248
     SPIN  1
     eigenvalues:
       0.132  0.132  0.220  0.220  0.228
     eigenvectors (columns):
       0.686  0.724  0.069 -0.014 -0.000
       0.016 -0.055  0.540  0.610  0.577
      -0.056  0.013  0.258 -0.772  0.577
      -0.724  0.686  0.014  0.069  0.000
      -0.040 -0.042  0.798 -0.163 -0.577
     occupation matrix ns (before diag.):
       0.133  0.003  0.003  0.000  0.005
       0.003  0.223  0.003  0.004 -0.003
       0.003  0.003  0.223 -0.004 -0.003
       0.000  0.004 -0.004  0.133 -0.000
       0.005 -0.003 -0.003 -0.000  0.223
     SPIN  2
     eigenvalues:
       0.572  0.572  0.971  0.980  0.980
     eigenvectors (columns):
       0.723 -0.689  0.000  0.045  0.006
       0.009  0.036 -0.577  0.499 -0.645
      -0.036 -0.011 -0.577  0.310  0.755
      -0.689 -0.723 -0.000  0.006 -0.045
      -0.027  0.026  0.577  0.808  0.109
     occupation matrix ns (before diag.):
       0.573  0.008  0.008  0.000  0.015
       0.008  0.977 -0.003  0.013  0.003
       0.008 -0.003  0.977 -0.013  0.003
       0.000  0.013 -0.013  0.573 -0.000
       0.015  0.003  0.003 -0.000  0.977

     Number of occupied Hubbard levels =   14.6328

     HUBBARD ENERGY =    0.0000  (Ry)

     total cpu time spent up to now is        1.2 secs

     total energy              =    -678.40848619 Ry
     estimated scf accuracy    <      10.98618266 Ry

     total magnetization       =    -2.75 Bohr mag/cell
     absolute magnetization    =     3.78 Bohr mag/cell

     iteration #  6     ecut=    35.00 Ry     beta= 0.70
     Davidson diagonalization with overlap

---- Real-time Memory Report at c_bands before calling an iterative solver
           121 MiB given to the printing process from OS
             0 MiB allocation reported by mallinfo(arena+hblkhd)
        236717 MiB available memory on the node where the printing process lives
------------------
     ethr =  4.93E-04,  avg # of iterations =  2.2

     =================== HUBBARD OCCUPATIONS ===================
     ------------------------ ATOM    1 ------------------------
     Tr[ns(  1)] (up, down, total) =   4.87771  2.37175  7.24946
     Atomic magnetic moment for atom   1 =   2.50596
     SPIN  1
     eigenvalues:
       0.960  0.960  0.984  0.987  0.987
     eigenvectors (columns):
      -0.704 -0.710  0.000 -0.009 -0.001
       0.002 -0.007 -0.577  0.501 -0.645
      -0.007  0.002 -0.577  0.308  0.756
       0.710 -0.704 -0.000 -0.001  0.009
      -0.005 -0.005  0.577  0.809  0.112
     occupation matrix ns (before diag.):
       0.960 -0.000 -0.000  0.000 -0.000
      -0.000  0.986 -0.001 -0.000  0.001
      -0.000 -0.001  0.986  0.000  0.001
       0.000 -0.000  0.000  0.960 -0.000
      -0.000  0.001  0.001 -0.000  0.986
     SPIN  2
     eigenvalues:
       0.241  0.241  0.546  0.672  0.672
     eigenvectors (columns):
      -0.720  0.694  0.000  0.013  0.001
      -0.003 -0.010 -0.577  0.484 -0.658
       0.010  0.003 -0.577  0.328  0.748
       0.694  0.720 -0.000  0.001 -0.013
       0.008 -0.007  0.577  0.811  0.090
     occupation matrix ns (before diag.):
       0.241  0.002  0.002  0.000  0.005
       0.002  0.630 -0.042  0.004  0.042
       0.002 -0.042  0.630 -0.004  0.042
       0.000  0.004 -0.004  0.241 -0.000
       0.005  0.042  0.042 -0.000  0.630
     ------------------------ ATOM    2 ------------------------
     Tr[ns(  2)] (up, down, total) =   2.61508  4.87496  7.49004
     Atomic magnetic moment for atom   2 =  -2.25988
     SPIN  1
     eigenvalues:
       0.247  0.247  0.656  0.733  0.733
     eigenvectors (columns):
      -0.728  0.685  0.000  0.029  0.004
      -0.006 -0.024 -0.577  0.503 -0.643
       0.023  0.007 -0.577  0.305  0.757
       0.685  0.728 -0.000  0.004 -0.029
       0.018 -0.017  0.577  0.808  0.114
     occupation matrix ns (before diag.):
       0.247  0.006  0.006  0.000  0.012
       0.006  0.707 -0.025  0.010  0.025
       0.006 -0.025  0.707 -0.010  0.025
       0.000  0.010 -0.010  0.247 -0.000
       0.012  0.025  0.025 -0.000  0.707
     SPIN  2
     eigenvalues:
       0.960  0.960  0.983  0.986  0.986
     eigenvectors (columns):
      -0.696 -0.718  0.000 -0.018 -0.002
       0.004 -0.014 -0.577  0.471 -0.667
      -0.014  0.004 -0.577  0.342  0.741
       0.718 -0.696 -0.000 -0.002  0.018
      -0.010 -0.010  0.577  0.813  0.074
     occupation matrix ns (before diag.):
       0.960 -0.000 -0.000  0.000 -0.000
      -0.000  0.985 -0.001 -0.000  0.001
      -0.000 -0.001  0.985  0.000  0.001
       0.000 -0.000  0.000  0.960 -0.000
      -0.000  0.001  0.001 -0.000  0.985

     Number of occupied Hubbard levels =   14.7395

     HUBBARD ENERGY =    0.0000  (Ry)

     total cpu time spent up to now is        1.4 secs

     total energy              =    -678.71760403 Ry
     estimated scf accuracy    <       0.02990435 Ry

     total magnetization       =     0.27 Bohr mag/cell
     absolute magnetization    =     5.00 Bohr mag/cell

     iteration #  7     ecut=    35.00 Ry     beta= 0.70
     Davidson diagonalization with overlap

---- Real-time Memory Report at c_bands before calling an iterative solver
           121 MiB given to the printing process from OS
             0 MiB allocation reported by mallinfo(arena+hblkhd)
        236712 MiB available memory on the node where the printing process lives
------------------
     ethr =  6.50E-05,  avg # of iterations =  1.8

     =================== HUBBARD OCCUPATIONS ===================
     ------------------------ ATOM    1 ------------------------
     Tr[ns(  1)] (up, down, total) =   4.87196  2.69234  7.56430
     Atomic magnetic moment for atom   1 =   2.17963
     SPIN  1
     eigenvalues:
       0.957  0.957  0.984  0.987  0.987
     eigenvectors (columns):
      -0.683 -0.731  0.000 -0.002 -0.000
       0.000 -0.001 -0.577  0.482 -0.659
      -0.001  0.000 -0.577  0.329  0.747
       0.731 -0.683 -0.000 -0.000  0.002
      -0.001 -0.001  0.577  0.812  0.088
     occupation matrix ns (before diag.):
       0.957 -0.000 -0.000  0.000 -0.000
      -0.000  0.986 -0.001 -0.000  0.001
      -0.000 -0.001  0.986  0.000  0.001
       0.000 -0.000  0.000  0.957 -0.000
      -0.000  0.001  0.001 -0.000  0.986
     SPIN  2
     eigenvalues:
       0.273  0.273  0.652  0.747  0.747
     eigenvectors (columns):
      -0.675  0.738  0.000  0.019  0.002
      -0.005 -0.015 -0.577  0.495 -0.649
       0.015  0.003 -0.577  0.314  0.753
       0.738  0.675 -0.000  0.002 -0.019
       0.010 -0.011  0.577  0.810  0.104
     occupation matrix ns (before diag.):
       0.274  0.004  0.004  0.000  0.007
       0.004  0.715 -0.032  0.006  0.032
       0.004 -0.032  0.715 -0.006  0.032
       0.000  0.006 -0.006  0.274 -0.000
       0.007  0.032  0.032 -0.000  0.715
     ------------------------ ATOM    2 ------------------------
     Tr[ns(  2)] (up, down, total) =   2.42227  4.85551  7.27778
     Atomic magnetic moment for atom   2 =  -2.43323
     SPIN  1
     eigenvalues:
       0.255  0.255  0.572  0.671  0.671
     eigenvectors (columns):
      -0.687  0.727  0.000  0.003  0.000
      -0.001 -0.003 -0.577  0.499 -0.647
       0.003  0.001 -0.577  0.311  0.755
       0.727  0.687 -0.000  0.000 -0.003
       0.002 -0.002  0.577  0.809  0.109
     occupation matrix ns (before diag.):
       0.255  0.001  0.001  0.000  0.001
       0.001  0.638 -0.033  0.001  0.033
       0.001 -0.033  0.638 -0.001  0.033
       0.000  0.001 -0.001  0.255 -0.000
       0.001  0.033  0.033 -0.000  0.638
     SPIN  2
     eigenvalues:
       0.951  0.951  0.983  0.986  0.986
     eigenvectors (columns):
       0.713 -0.701  0.000  0.011  0.001
       0.002  0.009 -0.577  0.482 -0.659
      -0.009 -0.002 -0.577  0.329  0.747
      -0.701 -0.713 -0.000  0.001 -0.011
      -0.007  0.007  0.577  0.812  0.088
     occupation matrix ns (before diag.):
       0.951  0.000  0.000  0.000  0.000
       0.000  0.985 -0.001  0.000  0.001
       0.000 -0.001  0.985 -0.000  0.001
       0.000  0.000 -0.000  0.951 -0.000
       0.000  0.001  0.001 -0.000  0.985

     Number of occupied Hubbard levels =   14.8421

     HUBBARD ENERGY =    0.0000  (Ry)

     total cpu time spent up to now is        1.5 secs

     total energy              =    -678.72095793 Ry
     estimated scf accuracy    <       0.04107699 Ry

     total magnetization       =    -0.25 Bohr mag/cell
     absolute magnetization    =     4.85 Bohr mag/cell

     iteration #  8     ecut=    35.00 Ry     beta= 0.70
     Davidson diagonalization with overlap

---- Real-time Memory Report at c_bands before calling an iterative solver
           122 MiB given to the printing process from OS
             0 MiB allocation reported by mallinfo(arena+hblkhd)
        236711 MiB available memory on the node where the printing process lives
------------------
     ethr =  6.50E-05,  avg # of iterations =  1.0

     =================== HUBBARD OCCUPATIONS ===================
     ------------------------ ATOM    1 ------------------------
     Tr[ns(  1)] (up, down, total) =   4.87096  2.61880  7.48976
     Atomic magnetic moment for atom   1 =   2.25216
     SPIN  1
     eigenvalues:
       0.957  0.957  0.984  0.987  0.987
     eigenvectors (columns):
      -0.731  0.683  0.000 -0.000 -0.000
       0.000  0.000 -0.577  0.485 -0.657
      -0.000 -0.000 -0.577  0.326  0.748
       0.683  0.731 -0.000 -0.000  0.000
      -0.000  0.000  0.577  0.811  0.092
     occupation matrix ns (before diag.):
       0.957 -0.000 -0.000  0.000 -0.000
      -0.000  0.986 -0.001 -0.000  0.001
      -0.000 -0.001  0.986  0.000  0.001
       0.000 -0.000  0.000  0.957 -0.000
      -0.000  0.001  0.001 -0.000  0.986
     SPIN  2
     eigenvalues:
       0.266  0.266  0.632  0.728  0.728
     eigenvectors (columns):
      -0.669  0.743  0.000  0.014  0.001
      -0.003 -0.011 -0.577  0.476 -0.663
       0.011  0.002 -0.577  0.336  0.744
       0.743  0.669 -0.000  0.001 -0.014
       0.007 -0.008  0.577  0.812  0.081
     occupation matrix ns (before diag.):
       0.266  0.003  0.003  0.000  0.005
       0.003  0.696 -0.032  0.004  0.032
       0.003 -0.032  0.696 -0.004  0.032
       0.000  0.004 -0.004  0.266 -0.000
       0.005  0.032  0.032 -0.000  0.696
     ------------------------ ATOM    2 ------------------------
     Tr[ns(  2)] (up, down, total) =   2.47844  4.86180  7.34024
     Atomic magnetic moment for atom   2 =  -2.38335
     SPIN  1
     eigenvalues:
       0.256  0.256  0.589  0.689  0.689
     eigenvectors (columns):
      -0.676  0.737  0.000  0.008  0.001
      -0.002 -0.007 -0.577  0.488 -0.655
       0.007  0.001 -0.577  0.323  0.750
       0.737  0.676 -0.000  0.001 -0.008
       0.005 -0.005  0.577  0.811  0.095
     occupation matrix ns (before diag.):
       0.256  0.001  0.001  0.000  0.003
       0.001  0.656 -0.033  0.003  0.033
       0.001 -0.033  0.656 -0.003  0.033
       0.000  0.003 -0.003  0.256 -0.000
       0.003  0.033  0.033 -0.000  0.656
     SPIN  2
     eigenvalues:
       0.953  0.953  0.983  0.986  0.986
     eigenvectors (columns):
       0.694  0.720  0.000  0.007  0.001
       0.002 -0.006 -0.577  0.492 -0.652
      -0.006  0.001 -0.577  0.318  0.752
      -0.720  0.694 -0.000  0.001 -0.007
      -0.004 -0.004  0.577  0.810  0.100
     occupation matrix ns (before diag.):
       0.953  0.000  0.000  0.000  0.000
       0.000  0.985 -0.001  0.000  0.001
       0.000 -0.001  0.985 -0.000  0.001
       0.000  0.000 -0.000  0.953 -0.000
       0.000  0.001  0.001 -0.000  0.985

     Number of occupied Hubbard levels =   14.8300

     HUBBARD ENERGY =    0.0000  (Ry)

     total cpu time spent up to now is        1.6 secs

     total energy              =    -678.72089757 Ry
     estimated scf accuracy    <       0.01133250 Ry

     total magnetization       =    -0.13 Bohr mag/cell
     absolute magnetization    =     4.87 Bohr mag/cell

     iteration #  9     ecut=    35.00 Ry     beta= 0.70
     Davidson diagonalization with overlap

---- Real-time Memory Report at c_bands before calling an iterative solver
           122 MiB given to the printing process from OS
             0 MiB allocation reported by mallinfo(arena+hblkhd)
        236711 MiB available memory on the node where the printing process lives
------------------
     ethr =  2.46E-05,  avg # of iterations =  1.0

     =================== HUBBARD OCCUPATIONS ===================
     ------------------------ ATOM    1 ------------------------
     Tr[ns(  1)] (up, down, total) =   4.86704  2.55013  7.41717
     Atomic magnetic moment for atom   1 =   2.31691
     SPIN  1
     eigenvalues:
       0.955  0.955  0.984  0.986  0.986
     eigenvectors (columns):
       0.689  0.725  0.000  0.005  0.001
       0.001 -0.004 -0.577  0.486 -0.656
      -0.004  0.001 -0.577  0.325  0.749
      -0.725  0.689 -0.000  0.001 -0.005
      -0.003 -0.003  0.577  0.811  0.093
     occupation matrix ns (before diag.):
       0.955  0.000  0.000  0.000  0.000
       0.000  0.985 -0.001  0.000  0.001
       0.000 -0.001  0.985 -0.000  0.001
       0.000  0.000 -0.000  0.955 -0.000
       0.000  0.001  0.001 -0.000  0.985
     SPIN  2
     eigenvalues:
       0.260  0.260  0.607  0.712  0.712
     eigenvectors (columns):
      -0.670  0.743  0.000  0.011  0.001
      -0.003 -0.009 -0.577  0.485 -0.657
       0.009  0.002 -0.577  0.326  0.748
       0.743  0.670 -0.000  0.001 -0.011
       0.006 -0.007  0.577  0.811  0.092
     occupation matrix ns (before diag.):
       0.260  0.002  0.002  0.000  0.004
       0.002  0.677 -0.035  0.004  0.035
       0.002 -0.035  0.677 -0.004  0.035
       0.000  0.004 -0.004  0.260 -0.000
       0.004  0.035  0.035 -0.000  0.677
     ------------------------ ATOM    2 ------------------------
     Tr[ns(  2)] (up, down, total) =   2.53967  4.86664  7.40631
     Atomic magnetic moment for atom   2 =  -2.32697
     SPIN  1
     eigenvalues:
       0.259  0.259  0.607  0.707  0.707
     eigenvectors (columns):
      -0.673  0.740  0.000  0.010  0.001
      -0.002 -0.008 -0.577  0.477 -0.663
       0.008  0.002 -0.577  0.335  0.744
       0.740  0.673 -0.000  0.001 -0.010
       0.005 -0.006  0.577  0.812  0.082
     occupation matrix ns (before diag.):
       0.259  0.002  0.002  0.000  0.004
       0.002  0.674 -0.034  0.003  0.034
       0.002 -0.034  0.674 -0.003  0.034
       0.000  0.003 -0.003  0.259 -0.000
       0.004  0.034  0.034 -0.000  0.674
     SPIN  2
     eigenvalues:
       0.955  0.955  0.984  0.986  0.986
     eigenvectors (columns):
       0.741 -0.671  0.000  0.004  0.000
       0.001  0.003 -0.577  0.483 -0.658
      -0.003 -0.001 -0.577  0.328  0.748
      -0.671 -0.741 -0.000  0.000 -0.004
      -0.003  0.002  0.577  0.812  0.090
     occupation matrix ns (before diag.):
       0.955  0.000  0.000  0.000  0.000
       0.000  0.985 -0.001  0.000  0.001
       0.000 -0.001  0.985 -0.000  0.001
       0.000  0.000 -0.000  0.955 -0.000
       0.000  0.001  0.001 -0.000  0.985

     Number of occupied Hubbard levels =   14.8235

     HUBBARD ENERGY =    0.0000  (Ry)

     total cpu time spent up to now is        1.7 secs

     total energy              =    -678.72105548 Ry
     estimated scf accuracy    <       0.00009593 Ry

     total magnetization       =    -0.01 Bohr mag/cell
     absolute magnetization    =     4.87 Bohr mag/cell

     iteration # 10     ecut=    35.00 Ry     beta= 0.70
     Davidson diagonalization with overlap

---- Real-time Memory Report at c_bands before calling an iterative solver
           122 MiB given to the printing process from OS
             0 MiB allocation reported by mallinfo(arena+hblkhd)
        236711 MiB available memory on the node where the printing process lives
------------------
     ethr =  2.09E-07,  avg # of iterations =  2.2

     =================== HUBBARD OCCUPATIONS ===================
     ------------------------ ATOM    1 ------------------------
     Tr[ns(  1)] (up, down, total) =   4.86596  2.53918  7.40514
     Atomic magnetic moment for atom   1 =   2.32677
     SPIN  1
     eigenvalues:
       0.955  0.955  0.984  0.986  0.986
     eigenvectors (columns):
       0.689  0.725  0.000  0.005  0.001
       0.001 -0.004 -0.577  0.479 -0.661
      -0.004  0.001 -0.577  0.333  0.745
      -0.725  0.689 -0.000  0.001 -0.005
      -0.003 -0.003  0.577  0.812  0.084
     occupation matrix ns (before diag.):
       0.955  0.000  0.000  0.000  0.000
       0.000  0.985 -0.001  0.000  0.001
       0.000 -0.001  0.985 -0.000  0.001
       0.000  0.000 -0.000  0.955 -0.000
       0.000  0.001  0.001 -0.000  0.985
     SPIN  2
     eigenvalues:
       0.259  0.259  0.605  0.708  0.708
     eigenvectors (columns):
      -0.641  0.767  0.000  0.009  0.001
      -0.003 -0.007 -0.577  0.475 -0.664
       0.007  0.001 -0.577  0.338  0.743
       0.767  0.641 -0.000  0.001 -0.009
       0.005 -0.006  0.577  0.813  0.079
     occupation matrix ns (before diag.):
       0.259  0.002  0.002  0.000  0.003
       0.002  0.674 -0.034  0.003  0.034
       0.002 -0.034  0.674 -0.003  0.034
       0.000  0.003 -0.003  0.259 -0.000
       0.003  0.034  0.034 -0.000  0.674
     ------------------------ ATOM    2 ------------------------
     Tr[ns(  2)] (up, down, total) =   2.55293  4.86663  7.41956
     Atomic magnetic moment for atom   2 =  -2.31370
     SPIN  1
     eigenvalues:
       0.260  0.260  0.609  0.712  0.712
     eigenvectors (columns):
      -0.715  0.699  0.000  0.011  0.001
      -0.002 -0.008 -0.577  0.485 -0.657
       0.008  0.002 -0.577  0.327  0.748
       0.699  0.715 -0.000  0.001 -0.011
       0.006 -0.006  0.577  0.811  0.091
     occupation matrix ns (before diag.):
       0.260  0.002  0.002  0.000  0.004
       0.002  0.678 -0.034  0.003  0.034
       0.002 -0.034  0.678 -0.003  0.034
       0.000  0.003 -0.003  0.260 -0.000
       0.004  0.034  0.034 -0.000  0.678
     SPIN  2
     eigenvalues:
       0.955  0.955  0.984  0.986  0.986
     eigenvectors (columns):
       0.712 -0.702  0.000  0.004  0.000
       0.001  0.004 -0.577  0.476 -0.664
      -0.004 -0.001 -0.577  0.337  0.744
      -0.702 -0.712 -0.000  0.000 -0.004
      -0.003  0.003  0.577  0.813  0.080
     occupation matrix ns (before diag.):
       0.955  0.000  0.000  0.000  0.000
       0.000  0.985 -0.001  0.000  0.001
       0.000 -0.001  0.985 -0.000  0.001
       0.000  0.000 -0.000  0.955 -0.000
       0.000  0.001  0.001 -0.000  0.985

     Number of occupied Hubbard levels =   14.8247

     HUBBARD ENERGY =    0.0000  (Ry)

     total cpu time spent up to now is        1.9 secs

     total energy              =    -678.72106834 Ry
     estimated scf accuracy    <       0.00011212 Ry

     total magnetization       =     0.01 Bohr mag/cell
     absolute magnetization    =     4.87 Bohr mag/cell

     iteration # 11     ecut=    35.00 Ry     beta= 0.70
     Davidson diagonalization with overlap

---- Real-time Memory Report at c_bands before calling an iterative solver
           122 MiB given to the printing process from OS
             0 MiB allocation reported by mallinfo(arena+hblkhd)
        236711 MiB available memory on the node where the printing process lives
------------------
     ethr =  2.09E-07,  avg # of iterations =  1.0

     =================== HUBBARD OCCUPATIONS ===================
     ------------------------ ATOM    1 ------------------------
     Tr[ns(  1)] (up, down, total) =   4.86539  2.54520  7.41059
     Atomic magnetic moment for atom   1 =   2.32019
     SPIN  1
     eigenvalues:
       0.955  0.955  0.984  0.986  0.986
     eigenvectors (columns):
       0.687  0.727  0.000  0.005  0.001
       0.001 -0.004 -0.577  0.490 -0.653
      -0.004  0.001 -0.577  0.320  0.751
      -0.727  0.687 -0.000  0.001 -0.005
      -0.003 -0.003  0.577  0.811  0.098
     occupation matrix ns (before diag.):
       0.955  0.000  0.000  0.000  0.000
       0.000  0.985 -0.001  0.000  0.001
       0.000 -0.001  0.985 -0.000  0.001
       0.000  0.000 -0.000  0.955 -0.000
       0.000  0.001  0.001 -0.000  0.985
     SPIN  2
     eigenvalues:
       0.260  0.260  0.606  0.709  0.709
     eigenvectors (columns):
       0.691  0.723  0.000  0.009  0.001
       0.002 -0.007 -0.577  0.485 -0.656
      -0.007  0.002 -0.577  0.326  0.749
      -0.723  0.691 -0.000  0.001 -0.009
      -0.005 -0.005  0.577  0.811  0.092
     occupation matrix ns (before diag.):
       0.260  0.002  0.002  0.000  0.003
       0.002  0.675 -0.034  0.003  0.034
       0.002 -0.034  0.675 -0.003  0.034
       0.000  0.003 -0.003  0.260 -0.000
       0.003  0.034  0.034 -0.000  0.675
     ------------------------ ATOM    2 ------------------------
     Tr[ns(  2)] (up, down, total) =   2.55072  4.86573  7.41645
     Atomic magnetic moment for atom   2 =  -2.31501
     SPIN  1
     eigenvalues:
       0.261  0.261  0.608  0.711  0.711
     eigenvectors (columns):
      -0.714  0.700  0.000  0.010  0.001
      -0.002 -0.008 -0.577  0.480 -0.660
       0.008  0.002 -0.577  0.332  0.746
       0.700  0.714 -0.000  0.001 -0.010
       0.006 -0.006  0.577  0.812  0.085
     occupation matrix ns (before diag.):
       0.261  0.002  0.002  0.000  0.004
       0.002  0.677 -0.034  0.003  0.034
       0.002 -0.034  0.677 -0.003  0.034
       0.000  0.003 -0.003  0.261 -0.000
       0.004  0.034  0.034 -0.000  0.677
     SPIN  2
     eigenvalues:
       0.955  0.955  0.984  0.986  0.986
     eigenvectors (columns):
       0.719 -0.695  0.000  0.005  0.001
       0.001  0.004 -0.577  0.488 -0.654
      -0.004 -0.001 -0.577  0.322  0.750
      -0.695 -0.719 -0.000  0.001 -0.005
      -0.003  0.003  0.577  0.811  0.096
     occupation matrix ns (before diag.):
       0.955  0.000  0.000  0.000  0.000
       0.000  0.985 -0.001  0.000  0.001
       0.000 -0.001  0.985 -0.000  0.001
       0.000  0.000 -0.000  0.955 -0.000
       0.000  0.001  0.001 -0.000  0.985

     Number of occupied Hubbard levels =   14.8270

     HUBBARD ENERGY =    0.0000  (Ry)

     total cpu time spent up to now is        2.0 secs

     total energy              =    -678.72107065 Ry
     estimated scf accuracy    <       0.00001746 Ry

     total magnetization       =     0.01 Bohr mag/cell
     absolute magnetization    =     4.86 Bohr mag/cell

     iteration # 12     ecut=    35.00 Ry     beta= 0.70
     Davidson diagonalization with overlap

---- Real-time Memory Report at c_bands before calling an iterative solver
           122 MiB given to the printing process from OS
             0 MiB allocation reported by mallinfo(arena+hblkhd)
        236711 MiB available memory on the node where the printing process lives
------------------
     ethr =  3.79E-08,  avg # of iterations =  1.0

     =================== HUBBARD OCCUPATIONS ===================
     ------------------------ ATOM    1 ------------------------
     Tr[ns(  1)] (up, down, total) =   4.86539  2.54914  7.41453
     Atomic magnetic moment for atom   1 =   2.31626
     SPIN  1
     eigenvalues:
       0.955  0.955  0.984  0.986  0.986
     eigenvectors (columns):
       0.689  0.725  0.000  0.005  0.001
       0.001 -0.004 -0.577  0.490 -0.653
      -0.004  0.001 -0.577  0.320  0.751
      -0.725  0.689 -0.000  0.001 -0.005
      -0.003 -0.003  0.577  0.811  0.098
     occupation matrix ns (before diag.):
       0.955  0.000  0.000  0.000  0.000
       0.000  0.985 -0.001  0.000  0.001
       0.000 -0.001  0.985 -0.000  0.001
       0.000  0.000 -0.000  0.955 -0.000
       0.000  0.001  0.001 -0.000  0.985
     SPIN  2
     eigenvalues:
       0.261  0.261  0.607  0.711  0.711
     eigenvectors (columns):
      -0.680  0.733  0.000  0.009  0.001
      -0.002 -0.007 -0.577  0.485 -0.657
       0.008  0.002 -0.577  0.327  0.748
       0.733  0.680 -0.000  0.001 -0.009
       0.005 -0.006  0.577  0.811  0.091
     occupation matrix ns (before diag.):
       0.261  0.002  0.002  0.000  0.003
       0.002  0.676 -0.034  0.003  0.034
       0.002 -0.034  0.676 -0.003  0.034
       0.000  0.003 -0.003  0.261 -0.000
       0.003  0.034  0.034 -0.000  0.676
     ------------------------ ATOM    2 ------------------------
     Tr[ns(  2)] (up, down, total) =   2.54767  4.86533  7.41300
     Atomic magnetic moment for atom   2 =  -2.31767
     SPIN  1
     eigenvalues:
       0.260  0.260  0.607  0.710  0.710
     eigenvectors (columns):
      -0.689  0.725  0.000  0.009  0.001
      -0.002 -0.007 -0.577  0.495 -0.650
       0.007  0.002 -0.577  0.315  0.753
       0.725  0.689 -0.000  0.001 -0.009
       0.005 -0.006  0.577  0.810  0.104
     occupation matrix ns (before diag.):
       0.260  0.002  0.002  0.000  0.003
       0.002  0.676 -0.034  0.003  0.034
       0.002 -0.034  0.676 -0.003  0.034
       0.000  0.003 -0.003  0.260 -0.000
       0.003  0.034  0.034 -0.000  0.676
     SPIN  2
     eigenvalues:
       0.955  0.955  0.984  0.986  0.986
     eigenvectors (columns):
       0.704  0.710  0.000  0.005  0.001
       0.001 -0.004 -0.577  0.488 -0.655
      -0.004  0.001 -0.577  0.323  0.750
      -0.710  0.704 -0.000  0.001 -0.005
      -0.003 -0.003  0.577  0.811  0.095
     occupation matrix ns (before diag.):
       0.955  0.000  0.000  0.000  0.000
       0.000  0.985 -0.001  0.000  0.001
       0.000 -0.001  0.985 -0.000  0.001
       0.000  0.000 -0.000  0.955 -0.000
       0.000  0.001  0.001 -0.000  0.985

     Number of occupied Hubbard levels =   14.8275

     HUBBARD ENERGY =    0.0000  (Ry)

     total cpu time spent up to now is        2.1 secs

     total energy              =    -678.72107114 Ry
     estimated scf accuracy    <       0.00000124 Ry

     total magnetization       =    -0.00 Bohr mag/cell
     absolute magnetization    =     4.86 Bohr mag/cell

     iteration # 13     ecut=    35.00 Ry     beta= 0.70
     Davidson diagonalization with overlap

---- Real-time Memory Report at c_bands before calling an iterative solver
           122 MiB given to the printing process from OS
             0 MiB allocation reported by mallinfo(arena+hblkhd)
        236711 MiB available memory on the node where the printing process lives
------------------
     ethr =  2.68E-09,  avg # of iterations =  1.2

     =================== HUBBARD OCCUPATIONS ===================
     ------------------------ ATOM    1 ------------------------
     Tr[ns(  1)] (up, down, total) =   4.86542  2.54763  7.41305
     Atomic magnetic moment for atom   1 =   2.31779
     SPIN  1
     eigenvalues:
       0.955  0.955  0.984  0.986  0.986
     eigenvectors (columns):
       0.692  0.722  0.000  0.005  0.001
       0.001 -0.004 -0.577  0.486 -0.656
      -0.004  0.001 -0.577  0.325  0.749
      -0.722  0.692 -0.000  0.001 -0.005
      -0.003 -0.003  0.577  0.811  0.093
     occupation matrix ns (before diag.):
       0.955  0.000  0.000  0.000  0.000
       0.000  0.985 -0.001  0.000  0.001
       0.000 -0.001  0.985 -0.000  0.001
       0.000  0.000 -0.000  0.955 -0.000
       0.000  0.001  0.001 -0.000  0.985
     SPIN  2
     eigenvalues:
       0.260  0.260  0.607  0.710  0.710
     eigenvectors (columns):
      -0.689  0.725  0.000  0.009  0.001
      -0.002 -0.007 -0.577  0.488 -0.654
       0.007  0.002 -0.577  0.323  0.750
       0.725  0.689 -0.000  0.001 -0.009
       0.005 -0.006  0.577  0.811  0.096
     occupation matrix ns (before diag.):
       0.260  0.002  0.002  0.000  0.003
       0.002  0.676 -0.035  0.003  0.035
       0.002 -0.035  0.676 -0.003  0.035
       0.000  0.003 -0.003  0.260 -0.000
       0.003  0.035  0.035 -0.000  0.676
     ------------------------ ATOM    2 ------------------------
     Tr[ns(  2)] (up, down, total) =   2.54884  4.86548  7.41432
     Atomic magnetic moment for atom   2 =  -2.31665
     SPIN  1
     eigenvalues:
       0.260  0.260  0.607  0.710  0.710
     eigenvectors (columns):
      -0.721  0.693  0.000  0.009  0.001
      -0.002 -0.008 -0.577  0.480 -0.661
       0.007  0.002 -0.577  0.332  0.746
       0.693  0.721 -0.000  0.001 -0.009
       0.006 -0.005  0.577  0.812  0.085
     occupation matrix ns (before diag.):
       0.260  0.002  0.002  0.000  0.003
       0.002  0.676 -0.034  0.003  0.034
       0.002 -0.034  0.676 -0.003  0.034
       0.000  0.003 -0.003  0.260 -0.000
       0.003  0.034  0.034 -0.000  0.676
     SPIN  2
     eigenvalues:
       0.955  0.955  0.984  0.986  0.986
     eigenvectors (columns):
       0.684  0.730  0.000  0.005  0.001
       0.001 -0.004 -0.577  0.485 -0.657
      -0.004  0.001 -0.577  0.327  0.748
      -0.730  0.684 -0.000  0.001 -0.005
      -0.003 -0.003  0.577  0.811  0.091
     occupation matrix ns (before diag.):
       0.955  0.000  0.000  0.000  0.000
       0.000  0.985 -0.001  0.000  0.001
       0.000 -0.001  0.985 -0.000  0.001
       0.000  0.000 -0.000  0.955 -0.000
       0.000  0.001  0.001 -0.000  0.985

     Number of occupied Hubbard levels =   14.8274

     HUBBARD ENERGY =    0.0000  (Ry)

     total cpu time spent up to now is        2.2 secs

     total energy              =    -678.72107120 Ry
     estimated scf accuracy    <       0.00000077 Ry

     total magnetization       =     0.00 Bohr mag/cell
     absolute magnetization    =     4.86 Bohr mag/cell

     iteration # 14     ecut=    35.00 Ry     beta= 0.70
     Davidson diagonalization with overlap

---- Real-time Memory Report at c_bands before calling an iterative solver
           122 MiB given to the printing process from OS
             0 MiB allocation reported by mallinfo(arena+hblkhd)
        236711 MiB available memory on the node where the printing process lives
------------------
     ethr =  1.67E-09,  avg # of iterations =  1.0

     =================== HUBBARD OCCUPATIONS ===================
     ------------------------ ATOM    1 ------------------------
     Tr[ns(  1)] (up, down, total) =   4.86543  2.54840  7.41383
     Atomic magnetic moment for atom   1 =   2.31702
     SPIN  1
     eigenvalues:
       0.955  0.955  0.984  0.986  0.986
     eigenvectors (columns):
       0.712 -0.702  0.000  0.005  0.001
       0.001  0.004 -0.577  0.489 -0.654
      -0.004 -0.001 -0.577  0.322  0.750
      -0.702 -0.712 -0.000  0.001 -0.005
      -0.003  0.003  0.577  0.811  0.097
     occupation matrix ns (before diag.):
       0.955  0.000  0.000  0.000  0.000
       0.000  0.985 -0.001  0.000  0.001
       0.000 -0.001  0.985 -0.000  0.001
       0.000  0.000 -0.000  0.955 -0.000
       0.000  0.001  0.001 -0.000  0.985
     SPIN  2
     eigenvalues:
       0.260  0.260  0.607  0.710  0.710
     eigenvectors (columns):
       0.680  0.733  0.000  0.009  0.001
       0.002 -0.007 -0.577  0.497 -0.648
      -0.007  0.002 -0.577  0.313  0.754
      -0.733  0.680 -0.000  0.001 -0.009
      -0.005 -0.006  0.577  0.809  0.106
     occupation matrix ns (before diag.):
       0.260  0.002  0.002  0.000  0.003
       0.002  0.676 -0.035  0.003  0.035
       0.002 -0.035  0.676 -0.003  0.035
       0.000  0.003 -0.003  0.260 -0.000
       0.003  0.035  0.035 -0.000  0.676
     ------------------------ ATOM    2 ------------------------
     Tr[ns(  2)] (up, down, total) =   2.54815  4.86541  7.41356
     Atomic magnetic moment for atom   2 =  -2.31727
     SPIN  1
     eigenvalues:
       0.260  0.260  0.607  0.710  0.710
     eigenvectors (columns):
       0.769 -0.639  0.000  0.009  0.001
       0.001  0.008 -0.577  0.481 -0.660
      -0.007 -0.003 -0.577  0.331  0.746
      -0.639 -0.769 -0.000  0.001 -0.009
      -0.006  0.005  0.577  0.812  0.087
     occupation matrix ns (before diag.):
       0.260  0.002  0.002  0.000  0.003
       0.002  0.676 -0.035  0.003  0.035
       0.002 -0.035  0.676 -0.003  0.035
       0.000  0.003 -0.003  0.260 -0.000
       0.003  0.035  0.035 -0.000  0.676
     SPIN  2
     eigenvalues:
       0.955  0.955  0.984  0.986  0.986
     eigenvectors (columns):
       0.667  0.745  0.000  0.005  0.001
       0.001 -0.004 -0.577  0.480 -0.660
      -0.004  0.001 -0.577  0.331  0.746
      -0.745  0.667 -0.000  0.001 -0.005
      -0.003 -0.003  0.577  0.812  0.086
     occupation matrix ns (before diag.):
       0.955  0.000  0.000  0.000  0.000
       0.000  0.985 -0.001  0.000  0.001
       0.000 -0.001  0.985 -0.000  0.001
       0.000  0.000 -0.000  0.955 -0.000
       0.000  0.001  0.001 -0.000  0.985

     Number of occupied Hubbard levels =   14.8274

     HUBBARD ENERGY =    0.0000  (Ry)

     total cpu time spent up to now is        2.3 secs

     total energy              =    -678.72107122 Ry
     estimated scf accuracy    <       0.00000004 Ry

     total magnetization       =    -0.00 Bohr mag/cell
     absolute magnetization    =     4.86 Bohr mag/cell

     iteration # 15     ecut=    35.00 Ry     beta= 0.70
     Davidson diagonalization with overlap

---- Real-time Memory Report at c_bands before calling an iterative solver
           122 MiB given to the printing process from OS
             0 MiB allocation reported by mallinfo(arena+hblkhd)
        236711 MiB available memory on the node where the printing process lives
------------------
     ethr =  8.22E-11,  avg # of iterations =  1.3

     =================== HUBBARD OCCUPATIONS ===================
     ------------------------ ATOM    1 ------------------------
     Tr[ns(  1)] (up, down, total) =   4.86543  2.54833  7.41376
     Atomic magnetic moment for atom   1 =   2.31710
     SPIN  1
     eigenvalues:
       0.955  0.955  0.984  0.986  0.986
     eigenvectors (columns):
       0.716 -0.698  0.000  0.005  0.001
       0.001  0.004 -0.577  0.484 -0.657
      -0.004 -0.001 -0.577  0.327  0.748
      -0.698 -0.716 -0.000  0.001 -0.005
      -0.003  0.003  0.577  0.811  0.091
     occupation matrix ns (before diag.):
       0.955  0.000  0.000  0.000  0.000
       0.000  0.985 -0.001  0.000  0.001
       0.000 -0.001  0.985 -0.000  0.001
       0.000  0.000 -0.000  0.955 -0.000
       0.000  0.001  0.001 -0.000  0.985
     SPIN  2
     eigenvalues:
       0.260  0.260  0.607  0.710  0.710
     eigenvectors (columns):
      -0.733  0.680  0.000  0.009  0.001
      -0.002 -0.007 -0.577  0.493 -0.651
       0.007  0.002 -0.577  0.317  0.753
       0.680  0.733 -0.000  0.001 -0.009
       0.006 -0.005  0.577  0.810  0.102
     occupation matrix ns (before diag.):
       0.260  0.002  0.002  0.000  0.003
       0.002  0.676 -0.035  0.003  0.035
       0.002 -0.035  0.676 -0.003  0.035
       0.000  0.003 -0.003  0.260 -0.000
       0.003  0.035  0.035 -0.000  0.676
     ------------------------ ATOM    2 ------------------------
     Tr[ns(  2)] (up, down, total) =   2.54822  4.86542  7.41364
     Atomic magnetic moment for atom   2 =  -2.31720
     SPIN  1
     eigenvalues:
       0.260  0.260  0.607  0.710  0.710
     eigenvectors (columns):
      -0.671  0.742  0.000  0.009  0.001
      -0.002 -0.007 -0.577  0.489 -0.654
       0.008  0.002 -0.577  0.322  0.750
       0.742  0.671 -0.000  0.001 -0.009
       0.005 -0.006  0.577  0.811  0.096
     occupation matrix ns (before diag.):
       0.260  0.002  0.002  0.000  0.003
       0.002  0.676 -0.035  0.003  0.035
       0.002 -0.035  0.676 -0.003  0.035
       0.000  0.003 -0.003  0.260 -0.000
       0.003  0.035  0.035 -0.000  0.676
     SPIN  2
     eigenvalues:
       0.955  0.955  0.984  0.986  0.986
     eigenvectors (columns):
       0.711  0.703  0.000  0.005  0.001
       0.001 -0.004 -0.577  0.485 -0.657
      -0.004  0.001 -0.577  0.326  0.749
      -0.703  0.711 -0.000  0.001 -0.005
      -0.003 -0.003  0.577  0.811  0.092
     occupation matrix ns (before diag.):
       0.955  0.000  0.000  0.000  0.000
       0.000  0.985 -0.001  0.000  0.001
       0.000 -0.001  0.985 -0.000  0.001
       0.000  0.000 -0.000  0.955 -0.000
       0.000  0.001  0.001 -0.000  0.985

     Number of occupied Hubbard levels =   14.8274

     HUBBARD ENERGY =    0.0000  (Ry)

     total cpu time spent up to now is        2.5 secs

     total energy              =    -678.72107122 Ry
     estimated scf accuracy    <          5.8E-09 Ry

     total magnetization       =    -0.00 Bohr mag/cell
     absolute magnetization    =     4.86 Bohr mag/cell

     iteration # 16     ecut=    35.00 Ry     beta= 0.70
     Davidson diagonalization with overlap

---- Real-time Memory Report at c_bands before calling an iterative solver
           122 MiB given to the printing process from OS
             0 MiB allocation reported by mallinfo(arena+hblkhd)
        236712 MiB available memory on the node where the printing process lives
------------------
     ethr =  1.27E-11,  avg # of iterations =  1.1

     =================== HUBBARD OCCUPATIONS ===================
     ------------------------ ATOM    1 ------------------------
     Tr[ns(  1)] (up, down, total) =   4.86542  2.54821  7.41363
     Atomic magnetic moment for atom   1 =   2.31721
     SPIN  1
     eigenvalues:
       0.955  0.955  0.984  0.986  0.986
     eigenvectors (columns):
       0.675  0.738  0.000  0.005  0.001
       0.001 -0.004 -0.577  0.500 -0.645
      -0.004  0.001 -0.577  0.308  0.756
      -0.738  0.675 -0.000  0.001 -0.005
      -0.003 -0.003  0.577  0.809  0.111
     occupation matrix ns (before diag.):
       0.955  0.000  0.000  0.000  0.000
       0.000  0.985 -0.001  0.000  0.001
       0.000 -0.001  0.985 -0.000  0.001
       0.000  0.000 -0.000  0.955 -0.000
       0.000  0.001  0.001 -0.000  0.985
     SPIN  2
     eigenvalues:
       0.260  0.260  0.607  0.710  0.710
     eigenvectors (columns):
       0.720 -0.694  0.000  0.009  0.001
       0.002  0.007 -0.577  0.480 -0.661
      -0.007 -0.002 -0.577  0.332  0.746
      -0.694 -0.720 -0.000  0.001 -0.009
      -0.006  0.005  0.577  0.812  0.085
     occupation matrix ns (before diag.):
       0.260  0.002  0.002  0.000  0.003
       0.002  0.676 -0.035  0.003  0.035
       0.002 -0.035  0.676 -0.003  0.035
       0.000  0.003 -0.003  0.260 -0.000
       0.003  0.035  0.035 -0.000  0.676
     ------------------------ ATOM    2 ------------------------
     Tr[ns(  2)] (up, down, total) =   2.54833  4.86543  7.41376
     Atomic magnetic moment for atom   2 =  -2.31709
     SPIN  1
     eigenvalues:
       0.260  0.260  0.607  0.710  0.710
     eigenvectors (columns):
       0.702  0.712  0.000  0.009  0.001
       0.002 -0.007 -0.577  0.478 -0.662
      -0.007  0.002 -0.577  0.334  0.745
      -0.712  0.702 -0.000  0.001 -0.009
      -0.005 -0.005  0.577  0.812  0.083
     occupation matrix ns (before diag.):
       0.260  0.002  0.002  0.000  0.003
       0.002  0.676 -0.035  0.003  0.035
       0.002 -0.035  0.676 -0.003  0.035
       0.000  0.003 -0.003  0.260 -0.000
       0.003  0.035  0.035 -0.000  0.676
     SPIN  2
     eigenvalues:
       0.955  0.955  0.984  0.986  0.986
     eigenvectors (columns):
       0.707 -0.707  0.000  0.005  0.001
       0.001  0.004 -0.577  0.493 -0.651
      -0.004 -0.001 -0.577  0.317  0.753
      -0.707 -0.707 -0.000  0.001 -0.005
      -0.003  0.003  0.577  0.810  0.102
     occupation matrix ns (before diag.):
       0.955  0.000  0.000  0.000  0.000
       0.000  0.985 -0.001  0.000  0.001
       0.000 -0.001  0.985 -0.000  0.001
       0.000  0.000 -0.000  0.955 -0.000
       0.000  0.001  0.001 -0.000  0.985

     Number of occupied Hubbard levels =   14.8274

     HUBBARD ENERGY =    0.0000  (Ry)

     total cpu time spent up to now is        2.6 secs

     total energy              =    -678.72107122 Ry
     estimated scf accuracy    <          7.8E-09 Ry

     total magnetization       =     0.00 Bohr mag/cell
     absolute magnetization    =     4.86 Bohr mag/cell

     iteration # 17     ecut=    35.00 Ry     beta= 0.70
     Davidson diagonalization with overlap

---- Real-time Memory Report at c_bands before calling an iterative solver
           122 MiB given to the printing process from OS
             0 MiB allocation reported by mallinfo(arena+hblkhd)
        236706 MiB available memory on the node where the printing process lives
------------------
     ethr =  1.27E-11,  avg # of iterations =  1.0

     =================== HUBBARD OCCUPATIONS ===================
     ------------------------ ATOM    1 ------------------------
     Tr[ns(  1)] (up, down, total) =   4.86543  2.54828  7.41371
     Atomic magnetic moment for atom   1 =   2.31714
     SPIN  1
     eigenvalues:
       0.955  0.955  0.984  0.986  0.986
     eigenvectors (columns):
       0.710 -0.704  0.000  0.005  0.001
       0.001  0.004 -0.577  0.485 -0.657
      -0.004 -0.001 -0.577  0.326  0.749
      -0.704 -0.710 -0.000  0.001 -0.005
      -0.003  0.003  0.577  0.811  0.092
     occupation matrix ns (before diag.):
       0.955  0.000  0.000  0.000  0.000
       0.000  0.985 -0.001  0.000  0.001
       0.000 -0.001  0.985 -0.000  0.001
       0.000  0.000 -0.000  0.955 -0.000
       0.000  0.001  0.001 -0.000  0.985
     SPIN  2
     eigenvalues:
       0.260  0.260  0.607  0.710  0.710
     eigenvectors (columns):
       0.696 -0.718  0.000  0.009  0.001
       0.002  0.007 -0.577  0.483 -0.658
      -0.007 -0.002 -0.577  0.328  0.748
      -0.718 -0.696 -0.000  0.001 -0.009
      -0.005  0.006  0.577  0.812  0.090
     occupation matrix ns (before diag.):
       0.260  0.002  0.002  0.000  0.003
       0.002  0.676 -0.035  0.003  0.035
       0.002 -0.035  0.676 -0.003  0.035
       0.000  0.003 -0.003  0.260 -0.000
       0.003  0.035  0.035 -0.000  0.676
     ------------------------ ATOM    2 ------------------------
     Tr[ns(  2)] (up, down, total) =   2.54826  4.86542  7.41369
     Atomic magnetic moment for atom   2 =  -2.31716
     SPIN  1
     eigenvalues:
       0.260  0.260  0.607  0.710  0.710
     eigenvectors (columns):
      -0.704  0.711  0.000  0.009  0.001
      -0.002 -0.007 -0.577  0.490 -0.653
       0.007  0.002 -0.577  0.321  0.751
       0.711  0.704 -0.000  0.001 -0.009
       0.005 -0.005  0.577  0.811  0.098
     occupation matrix ns (before diag.):
       0.260  0.002  0.002  0.000  0.003
       0.002  0.676 -0.035  0.003  0.035
       0.002 -0.035  0.676 -0.003  0.035
       0.000  0.003 -0.003  0.260 -0.000
       0.003  0.035  0.035 -0.000  0.676
     SPIN  2
     eigenvalues:
       0.955  0.955  0.984  0.986  0.986
     eigenvectors (columns):
       0.715 -0.699  0.000  0.005  0.001
       0.001  0.004 -0.577  0.487 -0.655
      -0.004 -0.001 -0.577  0.324  0.750
      -0.699 -0.715 -0.000  0.001 -0.005
      -0.003  0.003  0.577  0.811  0.094
     occupation matrix ns (before diag.):
       0.955  0.000  0.000  0.000  0.000
       0.000  0.985 -0.001  0.000  0.001
       0.000 -0.001  0.985 -0.000  0.001
       0.000  0.000 -0.000  0.955 -0.000
       0.000  0.001  0.001 -0.000  0.985

     Number of occupied Hubbard levels =   14.8274

     HUBBARD ENERGY =    0.0000  (Ry)

     total cpu time spent up to now is        2.7 secs

     total energy              =    -678.72107122 Ry
     estimated scf accuracy    <          1.9E-10 Ry

     total magnetization       =    -0.00 Bohr mag/cell
     absolute magnetization    =     4.86 Bohr mag/cell

     iteration # 18     ecut=    35.00 Ry     beta= 0.70
     Davidson diagonalization with overlap

---- Real-time Memory Report at c_bands before calling an iterative solver
           122 MiB given to the printing process from OS
             0 MiB allocation reported by mallinfo(arena+hblkhd)
        236704 MiB available memory on the node where the printing process lives
------------------
     ethr =  4.21E-13,  avg # of iterations =  1.3

     =================== HUBBARD OCCUPATIONS ===================
     ------------------------ ATOM    1 ------------------------
     Tr[ns(  1)] (up, down, total) =   4.86543  2.54827  7.41369
     Atomic magnetic moment for atom   1 =   2.31716
     SPIN  1
     eigenvalues:
       0.955  0.955  0.984  0.986  0.986
     eigenvectors (columns):
       0.700  0.714  0.000  0.005  0.001
       0.001 -0.004 -0.577  0.483 -0.658
      -0.004  0.001 -0.577  0.328  0.748
      -0.714  0.700 -0.000  0.001 -0.005
      -0.003 -0.003  0.577  0.812  0.089
     occupation matrix ns (before diag.):
       0.955  0.000  0.000  0.000  0.000
       0.000  0.985 -0.001  0.000  0.001
       0.000 -0.001  0.985 -0.000  0.001
       0.000  0.000 -0.000  0.955 -0.000
       0.000  0.001  0.001 -0.000  0.985
     SPIN  2
     eigenvalues:
       0.260  0.260  0.607  0.710  0.710
     eigenvectors (columns):
      -0.675  0.738  0.000  0.009  0.001
      -0.002 -0.007 -0.577  0.494 -0.650
       0.007  0.002 -0.577  0.316  0.753
       0.738  0.675 -0.000  0.001 -0.009
       0.005 -0.006  0.577  0.810  0.103
     occupation matrix ns (before diag.):
       0.260  0.002  0.002  0.000  0.003
       0.002  0.676 -0.035  0.003  0.035
       0.002 -0.035  0.676 -0.003  0.035
       0.000  0.003 -0.003  0.260 -0.000
       0.003  0.035  0.035 -0.000  0.676
     ------------------------ ATOM    2 ------------------------
     Tr[ns(  2)] (up, down, total) =   2.54828  4.86543  7.41370
     Atomic magnetic moment for atom   2 =  -2.31715
     SPIN  1
     eigenvalues:
       0.260  0.260  0.607  0.710  0.710
     eigenvectors (columns):
       0.674 -0.739  0.000  0.009  0.001
       0.002  0.007 -0.577  0.498 -0.647
      -0.007 -0.002 -0.577  0.311  0.755
      -0.739 -0.674 -0.000  0.001 -0.009
      -0.005  0.006  0.577  0.809  0.108
     occupation matrix ns (before diag.):
       0.260  0.002  0.002  0.000  0.003
       0.002  0.676 -0.035  0.003  0.035
       0.002 -0.035  0.676 -0.003  0.035
       0.000  0.003 -0.003  0.260 -0.000
       0.003  0.035  0.035 -0.000  0.676
     SPIN  2
     eigenvalues:
       0.955  0.955  0.984  0.986  0.986
     eigenvectors (columns):
       0.721 -0.693  0.000  0.005  0.001
       0.001  0.004 -0.577  0.491 -0.653
      -0.004 -0.001 -0.577  0.320  0.751
      -0.693 -0.721 -0.000  0.001 -0.005
      -0.003  0.003  0.577  0.810  0.099
     occupation matrix ns (before diag.):
       0.955  0.000  0.000  0.000  0.000
       0.000  0.985 -0.001  0.000  0.001
       0.000 -0.001  0.985 -0.000  0.001
       0.000  0.000 -0.000  0.955 -0.000
       0.000  0.001  0.001 -0.000  0.985

     Number of occupied Hubbard levels =   14.8274

     HUBBARD ENERGY =    0.0000  (Ry)
 
     Magnetic moment per site  (integrated on atomic sphere of radius R)
     atom   1 (R=0.202)  charge= 14.5424  magn=  2.2507
     atom   2 (R=0.202)  charge= 14.5424  magn= -2.2507
     atom   3 (R=0.202)  charge=  5.6499  magn=  0.0000
     atom   4 (R=0.202)  charge=  5.6499  magn=  0.0000

     total cpu time spent up to now is        2.8 secs

     End of self-consistent calculation

 ------ SPIN UP ------------


          k = 0.0000 0.0000 0.0000 (   811 PWs)   bands (ev):

   -80.9892 -77.9244 -44.4943 -44.3012 -44.3012 -41.4606 -41.4009 -41.4009
    -5.3266  -4.1849   6.3312  10.3034  10.3034  11.3305  12.1829  12.7793
    12.7793  12.8551  12.8551  13.6150  13.6150  14.7460  15.1269  15.1269
    17.2725  17.2725  17.3722  22.2027

     occupation numbers 
     1.0000   1.0000   1.0000   1.0000   1.0000   1.0000   1.0000   1.0000
     1.0000   1.0000   1.0000   1.0000   1.0000   1.0000   1.0000   1.0000
     1.0000   1.0000   1.0000   1.0000   1.0000   1.0000   1.0125   1.0125
     0.0000   0.0000   0.0000   0.0000

          k = 0.5338-0.1902-0.1902 (   827 PWs)   bands (ev):

   -80.9823 -77.9165 -44.4853 -44.3630 -44.3166 -41.4733 -41.4497 -41.4187
    -4.1753  -3.7300   8.0170   8.2875   8.7654   9.8139  10.3511  11.1507
    12.2845  13.5134  13.6655  14.1399  14.4828  14.5143  15.7761  15.8744
    16.8976  17.0599  21.2438  23.5493

     occupation numbers 
     1.0000   1.0000   1.0000   1.0000   1.0000   1.0000   1.0000   1.0000
     1.0000   1.0000   1.0000   1.0000   1.0000   1.0000   1.0000   1.0000
     1.0000   1.0000   1.0000   1.0000   1.0000   1.0000   0.4413   0.2205
     0.0000   0.0000   0.0000   0.0000

          k = 0.3436 0.3436-0.3804 (   827 PWs)   bands (ev):

   -80.9823 -77.9165 -44.4852 -44.3632 -44.3165 -41.4734 -41.4496 -41.4187
    -4.0801  -3.8345   8.0176   8.1854   9.1260   9.5472  10.3048  11.2364
    12.3179  13.4390  13.5375  14.3375  14.3730  14.5848  15.6655  15.8754
    17.1682  17.3733  20.4508  22.7944

     occupation numbers 
     1.0000   1.0000   1.0000   1.0000   1.0000   1.0000   1.0000   1.0000
     1.0000   1.0000   1.0000   1.0000   1.0000   1.0000   1.0000   1.0000
     1.0000   1.0000   1.0000   1.0000   1.0000   1.0000   0.7421   0.2186
     0.0000   0.0000   0.0000   0.0000

          k =-0.7241 0.7241 0.0000 (   831 PWs)   bands (ev):

   -80.9789 -77.9126 -44.4803 -44.3592 -44.3589 -41.4685 -41.4683 -41.4439
    -3.4793  -3.4792   8.2966   8.3452   8.8779   9.0013   9.2129   9.3935
    13.3496  13.4365  13.4781  14.2313  14.4711  15.4398  15.5670  15.8762
    17.1908  17.3020  23.8724  24.3333

     occupation numbers 
     1.0000   1.0000   1.0000   1.0000   1.0000   1.0000   1.0000   1.0000
     1.0000   1.0000   1.0000   1.0000   1.0000   1.0000   1.0000   1.0000
     1.0000   1.0000   1.0000   1.0000   1.0000   1.0794   0.9605   0.2172
     0.0000   0.0000   0.0000   0.0000

          k = 0.1534 0.1534 0.1534 (   817 PWs)   bands (ev):

   -80.9891 -77.9243 -44.4941 -44.3011 -44.3011 -41.4606 -41.4008 -41.4008
    -5.0737  -4.5077   7.2315   9.4146  10.5453  10.5453  11.8589  11.8589
    12.7913  12.8966  12.8966  14.5817  14.5817  14.8063  15.0893  15.0893
    16.9462  16.9462  18.6680  21.0055

     occupation numbers 
     1.0000   1.0000   1.0000   1.0000   1.0000   1.0000   1.0000   1.0000
     1.0000   1.0000   1.0000   1.0000   1.0000   1.0000   1.0000   1.0000
     1.0000   1.0000   1.0000   1.0000   1.0000   1.0001   1.0079   1.0079
     0.0000   0.0000   0.0000   0.0000

          k =-0.9143 0.5338 0.5338 (   815 PWs)   bands (ev):

   -80.9823 -77.9165 -44.4848 -44.3626 -44.3163 -41.4729 -41.4494 -41.4185
    -4.0551  -3.8558   7.6952   8.1491   9.0593  10.1552  10.4182  11.5798
    11.9647  13.5461  13.5715  13.9750  14.1075  14.6302  15.8202  15.8447
    16.7092  17.4375  21.8286  22.1791

     occupation numbers 
     1.0000   1.0000   1.0000   1.0000   1.0000   1.0000   1.0000   1.0000
     1.0000   1.0000   1.0000   1.0000   1.0000   1.0000   1.0000   1.0000
     1.0000   1.0000   1.0000   1.0000   1.0000   1.0000   0.3324   0.2786
     0.0000   0.0000   0.0000   0.0000

 ------ SPIN DOWN ----------


          k = 0.0000 0.0000 0.0000 (   811 PWs)   bands (ev):

   -80.9892 -77.9244 -44.4943 -44.3012 -44.3012 -41.4606 -41.4009 -41.4009
    -5.3266  -4.1849   6.3312  10.3034  10.3034  11.3305  12.1829  12.7793
    12.7793  12.8551  12.8551  13.6150  13.6150  14.7460  15.1269  15.1269
    17.2725  17.2725  17.3722  22.2027

     occupation numbers 
     1.0000   1.0000   1.0000   1.0000   1.0000   1.0000   1.0000   1.0000
     1.0000   1.0000   1.0000   1.0000   1.0000   1.0000   1.0000   1.0000
     1.0000   1.0000   1.0000   1.0000   1.0000   1.0000   1.0125   1.0125
     0.0000   0.0000   0.0000   0.0000

          k = 0.5338-0.1902-0.1902 (   827 PWs)   bands (ev):

   -80.9823 -77.9165 -44.4853 -44.3630 -44.3166 -41.4732 -41.4497 -41.4187
    -4.1753  -3.7300   8.0170   8.2875   8.7654   9.8139  10.3511  11.1507
    12.2845  13.5134  13.6654  14.1399  14.4828  14.5143  15.7761  15.8744
    16.8976  17.0599  21.2438  23.5493

     occupation numbers 
     1.0000   1.0000   1.0000   1.0000   1.0000   1.0000   1.0000   1.0000
     1.0000   1.0000   1.0000   1.0000   1.0000   1.0000   1.0000   1.0000
     1.0000   1.0000   1.0000   1.0000   1.0000   1.0000   0.4413   0.2205
     0.0000   0.0000   0.0000   0.0000

          k = 0.3436 0.3436-0.3804 (   827 PWs)   bands (ev):

   -80.9823 -77.9165 -44.4852 -44.3632 -44.3165 -41.4734 -41.4496 -41.4187
    -4.0801  -3.8345   8.0176   8.1854   9.1260   9.5472  10.3048  11.2364
    12.3179  13.4390  13.5375  14.3375  14.3730  14.5848  15.6655  15.8754
    17.1682  17.3733  20.4508  22.7944

     occupation numbers 
     1.0000   1.0000   1.0000   1.0000   1.0000   1.0000   1.0000   1.0000
     1.0000   1.0000   1.0000   1.0000   1.0000   1.0000   1.0000   1.0000
     1.0000   1.0000   1.0000   1.0000   1.0000   1.0000   0.7421   0.2186
     0.0000   0.0000   0.0000   0.0000

          k =-0.7241 0.7241 0.0000 (   831 PWs)   bands (ev):

   -80.9789 -77.9126 -44.4803 -44.3592 -44.3589 -41.4685 -41.4683 -41.4439
    -3.4793  -3.4792   8.2966   8.3452   8.8779   9.0013   9.2129   9.3935
    13.3496  13.4365  13.4781  14.2313  14.4711  15.4398  15.5670  15.8762
    17.1908  17.3020  23.8724  24.3333

     occupation numbers 
     1.0000   1.0000   1.0000   1.0000   1.0000   1.0000   1.0000   1.0000
     1.0000   1.0000   1.0000   1.0000   1.0000   1.0000   1.0000   1.0000
     1.0000   1.0000   1.0000   1.0000   1.0000   1.0794   0.9605   0.2172
     0.0000   0.0000   0.0000   0.0000

          k = 0.1534 0.1534 0.1534 (   817 PWs)   bands (ev):

   -80.9891 -77.9243 -44.4941 -44.3011 -44.3011 -41.4606 -41.4008 -41.4008
    -5.0737  -4.5077   7.2315   9.4146  10.5453  10.5453  11.8589  11.8589
    12.7913  12.8966  12.8966  14.5817  14.5817  14.8063  15.0893  15.0893
    16.9462  16.9462  18.6680  21.0055

     occupation numbers 
     1.0000   1.0000   1.0000   1.0000   1.0000   1.0000   1.0000   1.0000
     1.0000   1.0000   1.0000   1.0000   1.0000   1.0000   1.0000   1.0000
     1.0000   1.0000   1.0000   1.0000   1.0000   1.0001   1.0079   1.0079
     0.0000   0.0000   0.0000   0.0000

          k =-0.9143 0.5338 0.5338 (   815 PWs)   bands (ev):

   -80.9823 -77.9165 -44.4848 -44.3626 -44.3163 -41.4729 -41.4494 -41.4185
    -4.0551  -3.8558   7.6952   8.1491   9.0593  10.1552  10.4182  11.5798
    11.9647  13.5461  13.5715  13.9750  14.1075  14.6302  15.8202  15.8447
    16.7092  17.4375  21.8286  22.1791

     occupation numbers 
     1.0000   1.0000   1.0000   1.0000   1.0000   1.0000   1.0000   1.0000
     1.0000   1.0000   1.0000   1.0000   1.0000   1.0000   1.0000   1.0000
     1.0000   1.0000   1.0000   1.0000   1.0000   1.0000   0.3324   0.2786
     0.0000   0.0000   0.0000   0.0000

     the Fermi energy is    15.7920 ev

!    total energy              =    -678.72107122 Ry
     estimated scf accuracy    <          3.2E-11 Ry
     smearing contrib. (-TS)   =      -0.00696358 Ry
     internal energy E=F+TS    =    -678.71410764 Ry

     The total energy is F=E-TS. E is the sum of the following terms:
     one-electron contribution =    -341.32806280 Ry
     hartree contribution      =     200.33498021 Ry
     xc contribution           =     -79.52201905 Ry
     ewald contribution        =    -439.97286945 Ry
     Hubbard energy            =       0.00000856 Ry
     one-center paw contrib.   =     -18.22614512 Ry
      -> PAW hartree energy AE =       0.00000000 Ry
      -> PAW hartree energy PS =       0.00000000 Ry
      -> PAW xc energy AE      =       0.00000000 Ry
      -> PAW xc energy PS      =       0.00000000 Ry
      -> total E_H with PAW    =     200.33498021 Ry
      -> total E_XC with PAW   =     -79.52201905 Ry

     total magnetization       =     0.00 Bohr mag/cell
     absolute magnetization    =     4.86 Bohr mag/cell

     convergence has been achieved in  18 iterations

     Writing all to output data dir ./tmp/CoO.save/
 
     init_run     :      0.17s CPU      0.21s WALL (       1 calls)
     electrons    :      2.30s CPU      2.39s WALL (       1 calls)

     Called by init_run:
     wfcinit      :      0.03s CPU      0.04s WALL (       1 calls)
     wfcinit:atom :      0.00s CPU      0.00s WALL (       6 calls)
     wfcinit:wfcr :      0.03s CPU      0.03s WALL (       6 calls)
     potinit      :      0.06s CPU      0.06s WALL (       1 calls)
     hinit0       :      0.07s CPU      0.09s WALL (       1 calls)

     Called by electrons:
     c_bands      :      1.10s CPU      1.13s WALL (      18 calls)
     sum_band     :      0.32s CPU      0.33s WALL (      18 calls)
     v_of_rho     :      0.21s CPU      0.23s WALL (      19 calls)
     v_h          :      0.00s CPU      0.01s WALL (      19 calls)
     v_xc         :      0.21s CPU      0.23s WALL (      19 calls)
     newd         :      0.06s CPU      0.07s WALL (      19 calls)
     PAW_pot      :      0.61s CPU      0.61s WALL (      19 calls)
     mix_rho      :      0.02s CPU      0.02s WALL (      18 calls)

     Called by c_bands:
     init_us_2    :      0.00s CPU      0.00s WALL (     228 calls)
     init_us_2:cp :      0.00s CPU      0.00s WALL (     228 calls)
     cegterg      :      1.06s CPU      1.09s WALL (     108 calls)

     Called by sum_band:
     sum_band:wei :      0.01s CPU      0.01s WALL (      18 calls)
     sum_band:loo :      0.20s CPU      0.20s WALL (      18 calls)
     sum_band:buf :      0.00s CPU      0.00s WALL (     108 calls)
     sum_band:ini :      0.00s CPU      0.00s WALL (     108 calls)
     sum_band:cal :      0.01s CPU      0.01s WALL (     108 calls)
     sum_band:bec :      0.00s CPU      0.00s WALL (     108 calls)
     addusdens    :      0.08s CPU      0.08s WALL (      18 calls)
                                        0.00s GPU  (      18 calls)
     addusd:skk   :      0.00s CPU      0.00s WALL (      54 calls)
                                        0.00s GPU  (      54 calls)

     Called by *egterg:
     cdiaghg      :      0.19s CPU      0.20s WALL (     297 calls)
     cegterg:over :      0.03s CPU      0.03s WALL (     189 calls)
     cegterg:upda :      0.00s CPU      0.00s WALL (     189 calls)
     cegterg:last :      0.01s CPU      0.01s WALL (     174 calls)
     h_psi        :      0.83s CPU      0.85s WALL (     303 calls)
     s_psi        :      0.01s CPU      0.01s WALL (     309 calls)
     g_psi        :      0.00s CPU      0.00s WALL (     189 calls)

     Called by h_psi:
     h_psi:calbec :      0.03s CPU      0.03s WALL (     303 calls)
     vloc_psi     :      0.77s CPU      0.80s WALL (     303 calls)
     add_vuspsi   :      0.01s CPU      0.01s WALL (     303 calls)
     vhpsi        :      0.01s CPU      0.01s WALL (     303 calls)

     General routines
     calbec       :      0.05s CPU      0.05s WALL (     828 calls)
     fft          :      0.09s CPU      0.10s WALL (     469 calls)
     ffts         :      0.00s CPU      0.01s WALL (      74 calls)
     fftw         :      0.86s CPU      0.88s WALL (   17172 calls)
     interpolate  :      0.01s CPU      0.01s WALL (      38 calls)
     davcio       :      0.00s CPU      0.00s WALL (       6 calls)
 
     Parallel routines

     Hubbard U routines
     new_ns       :      0.01s CPU      0.01s WALL (      18 calls)
     vhpsi        :      0.01s CPU      0.01s WALL (     303 calls)

     PAW routines
     PAW_pot      :      0.61s CPU      0.61s WALL (      19 calls)
     PAW_symme    :      0.01s CPU      0.01s WALL (      37 calls)
 
     PWSCF        :      2.67s CPU      2.89s WALL

 
   This run was terminated on:  13:32:12  23Jun2024            

=------------------------------------------------------------------------------=
   JOB DONE.
=------------------------------------------------------------------------------=
