
     Program PWSCF v.7.2 starts on 23Jun2024 at 12:52:24 

     This program is part of the open-source Quantum ESPRESSO suite
     for quantum simulation of materials; please cite
         "P. Giannozzi et al., J. Phys.:Condens. Matter 21 395502 (2009);
         "P. Giannozzi et al., J. Phys.:Condens. Matter 29 465901 (2017);
         "P. Giannozzi et al., J. Chem. Phys. 152 154105 (2020);
          URL http://www.quantum-espresso.org", 
     in publications or presentations arising from this work. More details at
     http://www.quantum-espresso.org/quote

     Parallel version (MPI), running on    32 processors

     MPI processes distributed on     1 nodes
     245839 MiB available memory on the printing compute node when the environment starts
 
     Waiting for input...
     Reading input from standard input

     Current dimensions of program PWSCF are:
     Max number of different atomic species (ntypx) = 10
     Max number of k-points (npk) =  40000
     Max angular momentum in pseudopotentials (lmaxx) =  4
     Message from routine volume:
     axis vectors are left-handed

     Atomic positions and unit cell read from directory:
     ./tmp/CoO.save/
     Atomic positions from file used, from input discarded
 
     Message from routine volume:
     axis vectors are left-handed
     file O.pbesol-n-kjpaw_psl.0.1.UPF: wavefunction(s)  2P renormalized
     Message from routine setup:
     using ibrav=0 with symmetry is DISCOURAGED, use correct ibrav instead
 
     K-points division:     npool     =       2
     R & G space division:  proc/nbgrp/npool/nimage =      16
     Subspace diagonalization in iterative solution of the eigenvalue problem:
     a serial algorithm will be used

 
     Parallelization info
     --------------------
     sticks:   dense  smooth     PW     G-vecs:    dense   smooth      PW
     Min          72      36     12                 1159      408      86
     Max          73      37     13                 1162      409      88
     Sum        1167     587    207                18569     6541    1403
 
     Using Slab Decomposition
 


     bravais-lattice index     =            0
     lattice parameter (alat)  =       8.0000  a.u.
     unit-cell volume          =     235.7543 (a.u.)^3
     number of atoms/cell      =            4
     number of atomic types    =            3
     number of electrons       =        46.00
     number of Kohn-Sham states=           40
     kinetic-energy cutoff     =      35.0000  Ry
     charge density cutoff     =     280.0000  Ry
     Exchange-correlation= SLA  PW   PSX  PSC
                           (   1   4  10   8   0   0   0)

     celldm(1)=   8.000000  celldm(2)=   0.000000  celldm(3)=   0.000000
     celldm(4)=   0.000000  celldm(5)=   0.000000  celldm(6)=   0.000000

     crystal axes: (cart. coord. in units of alat)
               a(1) = (   0.570726   0.570726   1.031099 )  
               a(2) = (   0.570726   1.031099   0.570726 )  
               a(3) = (   1.031099   0.570726   0.570726 )  

     reciprocal axes: (cart. coord. in units 2 pi/alat)
               b(1) = ( -0.570621 -0.570621  1.601531 )  
               b(2) = ( -0.570621  1.601531 -0.570621 )  
               b(3) = (  1.601531 -0.570621 -0.570621 )  


     PseudoPot. # 1 for Co read from file:
     ./co_pbesol_v1.2.uspp.F.UPF
     MD5 check sum: 3b4cd4e7cc7df4da9fdede0fd33e2193
     Pseudo is Ultrasoft + core correction, Zval = 17.0
     Generated by new atomic code, or converted to UPF format
     Using radial grid of  863 points,  6 beta functions with: 
                l(1) =   0
                l(2) =   0
                l(3) =   1
                l(4) =   1
                l(5) =   2
                l(6) =   2
     Q(r) pseudized with  8 coefficients,  rinner =    1.200   1.200   1.200
                                                       1.200   1.200

     PseudoPot. # 2 for Co read from file:
     ./co_pbesol_v1.2.uspp.F.UPF
     MD5 check sum: 3b4cd4e7cc7df4da9fdede0fd33e2193
     Pseudo is Ultrasoft + core correction, Zval = 17.0
     Generated by new atomic code, or converted to UPF format
     Using radial grid of  863 points,  6 beta functions with: 
                l(1) =   0
                l(2) =   0
                l(3) =   1
                l(4) =   1
                l(5) =   2
                l(6) =   2
     Q(r) pseudized with  8 coefficients,  rinner =    1.200   1.200   1.200
                                                       1.200   1.200

     PseudoPot. # 3 for O  read from file:
     ./O.pbesol-n-kjpaw_psl.0.1.UPF
     MD5 check sum: 126339daddaa87477ab44acfa0b5aa00
     Pseudo is Projector augmented-wave + core cor, Zval =  6.0
     Generated using "atomic" code by A. Dal Corso  v.6.0 svn rev. 13079
     Shape of augmentation charge: BESSEL
     Using radial grid of 1095 points,  4 beta functions with: 
                l(1) =   0
                l(2) =   0
                l(3) =   1
                l(4) =   1
     Q(r) pseudized with 0 coefficients 


     atomic species   valence    mass     pseudopotential
        Co1           17.00    58.93319     Co( 1.00)
        Co2           17.00    58.93319     Co( 1.00)
        O              6.00    15.99900     O ( 1.00)

     Starting magnetic structure 
     atomic species   magnetization
        Co1          0.500
        Co2         -0.500
        O            0.000

     12 Sym. Ops., with inversion, found


                                    s                        frac. trans.

      isym =  1     identity                                     

 cryst.   s( 1) = (     1          0          0      )
                  (     0          1          0      )
                  (     0          0          1      )

 cart.    s( 1) = (  1.0000000  0.0000000  0.0000000 )
                  (  0.0000000  1.0000000  0.0000000 )
                  (  0.0000000  0.0000000  1.0000000 )


      isym =  2     180 deg rotation - cart. axis [1,-1,0]       

 cryst.   s( 2) = (    -1          0          0      )
                  (     0          0         -1      )
                  (     0         -1          0      )

 cart.    s( 2) = ( -0.0000000 -1.0000000 -0.0000000 )
                  ( -1.0000000 -0.0000000 -0.0000000 )
                  ( -0.0000000 -0.0000000 -1.0000000 )


      isym =  3     180 deg rotation - cart. axis [-1,0,1]       

 cryst.   s( 3) = (     0          0         -1      )
                  (     0         -1          0      )
                  (    -1          0          0      )

 cart.    s( 3) = ( -0.0000000 -0.0000000 -1.0000000 )
                  ( -0.0000000 -1.0000000 -0.0000000 )
                  ( -1.0000000 -0.0000000 -0.0000000 )


      isym =  4     180 deg rotation - cart. axis [0,1,-1]       

 cryst.   s( 4) = (     0         -1          0      )
                  (    -1          0          0      )
                  (     0          0         -1      )

 cart.    s( 4) = ( -1.0000000 -0.0000000 -0.0000000 )
                  ( -0.0000000 -0.0000000 -1.0000000 )
                  ( -0.0000000 -1.0000000 -0.0000000 )


      isym =  5     120 deg rotation - cart. axis [-1,-1,-1]     

 cryst.   s( 5) = (     0          1          0      )
                  (     0          0          1      )
                  (     1          0          0      )

 cart.    s( 5) = (  0.0000000  1.0000000  0.0000000 )
                  (  0.0000000  0.0000000  1.0000000 )
                  (  1.0000000  0.0000000  0.0000000 )


      isym =  6     120 deg rotation - cart. axis [1,1,1]        

 cryst.   s( 6) = (     0          0          1      )
                  (     1          0          0      )
                  (     0          1          0      )

 cart.    s( 6) = (  0.0000000  0.0000000  1.0000000 )
                  (  1.0000000  0.0000000  0.0000000 )
                  (  0.0000000  1.0000000  0.0000000 )


      isym =  7     inversion                                    

 cryst.   s( 7) = (    -1          0          0      )
                  (     0         -1          0      )
                  (     0          0         -1      )

 cart.    s( 7) = ( -1.0000000 -0.0000000 -0.0000000 )
                  ( -0.0000000 -1.0000000 -0.0000000 )
                  ( -0.0000000 -0.0000000 -1.0000000 )


      isym =  8     inv. 180 deg rotation - cart. axis [1,-1,0]  

 cryst.   s( 8) = (     1          0          0      )
                  (     0          0          1      )
                  (     0          1          0      )

 cart.    s( 8) = (  0.0000000  1.0000000  0.0000000 )
                  (  1.0000000  0.0000000  0.0000000 )
                  (  0.0000000  0.0000000  1.0000000 )


      isym =  9     inv. 180 deg rotation - cart. axis [-1,0,1]  

 cryst.   s( 9) = (     0          0          1      )
                  (     0          1          0      )
                  (     1          0          0      )

 cart.    s( 9) = (  0.0000000  0.0000000  1.0000000 )
                  (  0.0000000  1.0000000  0.0000000 )
                  (  1.0000000  0.0000000  0.0000000 )


      isym = 10     inv. 180 deg rotation - cart. axis [0,1,-1]  

 cryst.   s(10) = (     0          1          0      )
                  (     1          0          0      )
                  (     0          0          1      )

 cart.    s(10) = (  1.0000000  0.0000000  0.0000000 )
                  (  0.0000000  0.0000000  1.0000000 )
                  (  0.0000000  1.0000000  0.0000000 )


      isym = 11     inv. 120 deg rotation - cart. axis [-1,-1,-1]

 cryst.   s(11) = (     0         -1          0      )
                  (     0          0         -1      )
                  (    -1          0          0      )

 cart.    s(11) = ( -0.0000000 -1.0000000 -0.0000000 )
                  ( -0.0000000 -0.0000000 -1.0000000 )
                  ( -1.0000000 -0.0000000 -0.0000000 )


      isym = 12     inv. 120 deg rotation - cart. axis [1,1,1]   

 cryst.   s(12) = (     0          0         -1      )
                  (    -1          0          0      )
                  (     0         -1          0      )

 cart.    s(12) = ( -0.0000000 -0.0000000 -1.0000000 )
                  ( -1.0000000 -0.0000000 -0.0000000 )
                  ( -0.0000000 -1.0000000 -0.0000000 )


   Cartesian axes

     site n.     atom                  positions (alat units)
         1           Co1 tau(   1) = (   0.0000000   0.0000000   0.0000000  )
         2           Co2 tau(   2) = (   1.0862757   1.0862757   1.0862757  )
         3           O   tau(   3) = (   0.5431378   0.5431378   0.5431378  )
         4           O   tau(   4) = (   1.6294135   1.6294135   1.6294135  )

   Crystallographic axes

     site n.     atom                  positions (cryst. coord.)
         1           Co1 tau(   1) = (  0.0000000  0.0000000  0.0000000  )
         2           Co2 tau(   2) = (  0.5000000  0.5000000  0.5000000  )
         3           O   tau(   3) = (  0.2500000  0.2500000  0.2500000  )
         4           O   tau(   4) = (  0.7500000  0.7500000  0.7500000  )

     number of k points=    32  Marzari-Vanderbilt smearing, width (Ry)=  0.0200
                       cart. coord. in units 2pi/alat
        k(    1) = (   0.0000000   0.0000000   0.0000000), wk =   0.0046296
        k(    2) = (   0.2669218  -0.0951035  -0.0951035), wk =   0.0277778
        k(    3) = (   0.5338435  -0.1902071  -0.1902071), wk =   0.0277778
        k(    4) = (  -0.8007653   0.2853106   0.2853106), wk =   0.0138889
        k(    5) = (   0.1718182   0.1718182  -0.1902071), wk =   0.0277778
        k(    6) = (   0.4387400   0.0767147  -0.2853106), wk =   0.0555556
        k(    7) = (  -0.8958688   0.5522323   0.1902071), wk =   0.0555556
        k(    8) = (  -0.6289471   0.4571288   0.0951035), wk =   0.0555556
        k(    9) = (  -0.3620253   0.3620253  -0.0000000), wk =   0.0277778
        k(   10) = (   0.3436365   0.3436365  -0.3804141), wk =   0.0277778
        k(   11) = (  -0.9909724   0.8191541   0.0951035), wk =   0.0555556
        k(   12) = (  -0.7240506   0.7240506   0.0000000), wk =   0.0277778
        k(   13) = (  -0.5154547  -0.5154547   0.5706212), wk =   0.0138889
        k(   14) = (   0.0767147   0.0767147   0.0767147), wk =   0.0092593
        k(   15) = (   0.3436365  -0.0183888  -0.0183888), wk =   0.0277778
        k(   16) = (  -0.9909724   0.4571288   0.4571288), wk =   0.0277778
        k(   17) = (  -0.7240506   0.3620253   0.3620253), wk =   0.0277778
        k(   18) = (  -0.4571288   0.2669218   0.2669218), wk =   0.0277778
        k(   19) = (   0.2485330   0.2485330  -0.1134923), wk =   0.0277778
        k(   20) = (  -1.0860759   0.7240506   0.3620253), wk =   0.0555556
        k(   21) = (  -0.8191541   0.6289471   0.2669218), wk =   0.0555556
        k(   22) = (  -0.5522323   0.5338435   0.1718182), wk =   0.0555556
        k(   23) = (  -0.6105583  -0.6105583   0.8375429), wk =   0.0277778
        k(   24) = (  -0.3436365  -0.7056618   0.7424394), wk =   0.0555556
        k(   25) = (  -0.0767147  -0.8007653   0.6473359), wk =   0.0277778
        k(   26) = (  -0.4387400  -0.4387400   0.6473359), wk =   0.0277778
        k(   27) = (   0.1534294   0.1534294   0.1534294), wk =   0.0092593
        k(   28) = (  -1.1811794   0.6289471   0.6289471), wk =   0.0277778
        k(   29) = (  -0.9142576   0.5338435   0.5338435), wk =   0.0277778
        k(   30) = (  -0.7056618  -0.7056618   1.1044647), wk =   0.0277778
        k(   31) = (  -0.4387400  -0.8007653   1.0093612), wk =   0.0277778
        k(   32) = (  -0.2301442  -0.2301442  -0.2301442), wk =   0.0046296

                       cryst. coord.
        k(    1) = (   0.0000000   0.0000000   0.0000000), wk =   0.0046296
        k(    2) = (   0.0000000   0.0000000   0.1666667), wk =   0.0277778
        k(    3) = (   0.0000000   0.0000000   0.3333333), wk =   0.0277778
        k(    4) = (  -0.0000000  -0.0000000  -0.5000000), wk =   0.0138889
        k(    5) = (   0.0000000   0.1666667   0.1666667), wk =   0.0277778
        k(    6) = (   0.0000000   0.1666667   0.3333333), wk =   0.0555556
        k(    7) = (   0.0000000   0.1666667  -0.5000000), wk =   0.0555556
        k(    8) = (   0.0000000   0.1666667  -0.3333333), wk =   0.0555556
        k(    9) = (  -0.0000000   0.1666667  -0.1666667), wk =   0.0277778
        k(   10) = (   0.0000000   0.3333333   0.3333333), wk =   0.0277778
        k(   11) = (   0.0000000   0.3333333  -0.5000000), wk =   0.0555556
        k(   12) = (   0.0000000   0.3333333  -0.3333333), wk =   0.0277778
        k(   13) = (  -0.0000000  -0.5000000  -0.5000000), wk =   0.0138889
        k(   14) = (   0.1666667   0.1666667   0.1666667), wk =   0.0092593
        k(   15) = (   0.1666667   0.1666667   0.3333333), wk =   0.0277778
        k(   16) = (   0.1666667   0.1666667  -0.5000000), wk =   0.0277778
        k(   17) = (   0.1666667   0.1666667  -0.3333333), wk =   0.0277778
        k(   18) = (   0.1666667   0.1666667  -0.1666667), wk =   0.0277778
        k(   19) = (   0.1666667   0.3333333   0.3333333), wk =   0.0277778
        k(   20) = (   0.1666667   0.3333333  -0.5000000), wk =   0.0555556
        k(   21) = (   0.1666667   0.3333333  -0.3333333), wk =   0.0555556
        k(   22) = (   0.1666667   0.3333333  -0.1666667), wk =   0.0555556
        k(   23) = (   0.1666667  -0.5000000  -0.5000000), wk =   0.0277778
        k(   24) = (   0.1666667  -0.5000000  -0.3333333), wk =   0.0555556
        k(   25) = (   0.1666667  -0.5000000  -0.1666667), wk =   0.0277778
        k(   26) = (   0.1666667  -0.3333333  -0.3333333), wk =   0.0277778
        k(   27) = (   0.3333333   0.3333333   0.3333333), wk =   0.0092593
        k(   28) = (   0.3333333   0.3333333  -0.5000000), wk =   0.0277778
        k(   29) = (   0.3333333   0.3333333  -0.3333333), wk =   0.0277778
        k(   30) = (   0.3333333  -0.5000000  -0.5000000), wk =   0.0277778
        k(   31) = (   0.3333333  -0.5000000  -0.3333333), wk =   0.0277778
        k(   32) = (  -0.5000000  -0.5000000  -0.5000000), wk =   0.0046296

     Dense  grid:    18569 G-vectors     FFT dimensions: (  60,  60,  60)

     Smooth grid:     6541 G-vectors     FFT dimensions: (  40,  40,  40)

     Dynamical RAM for                 wfc:       0.03 MB

     Dynamical RAM for     wfc (w. buffer):       0.03 MB

     Dynamical RAM for           str. fact:       0.05 MB

     Dynamical RAM for           local pot:       0.00 MB

     Dynamical RAM for          nlocal pot:       0.04 MB

     Dynamical RAM for                qrad:       4.03 MB

     Dynamical RAM for          rho,v,vnew:       0.77 MB

     Dynamical RAM for           G-vectors:       0.07 MB

     Dynamical RAM for          h,s,v(r/c):       0.29 MB

     Dynamical RAM for          <psi|beta>:       0.03 MB

     Dynamical RAM for                 psi:       0.06 MB

     Dynamical RAM for                hpsi:       0.06 MB

     Dynamical RAM for                spsi:       0.06 MB

     Dynamical RAM for      wfcinit/wfcrot:       0.10 MB

     Dynamical RAM for           addusdens:       1.69 MB

     Estimated static dynamical RAM per process >       5.72 MB

     Estimated max dynamical RAM per process >       7.41 MB

     Estimated total dynamical RAM >     237.24 MB

     Check: negative core charge=   -0.000041
     Generating pointlists ...
     new r_m :   0.2019 (alat units)  1.6154 (a.u.) for type    1
     new r_m :   0.2019 (alat units)  1.6154 (a.u.) for type    2
     new r_m :   0.2019 (alat units)  1.6154 (a.u.) for type    3

     The potential is recalculated from file :
     ./tmp/CoO.save/charge-density

     Starting wfcs are   34 randomized atomic wfcs +    6 random wfcs
     Checking if some PAW data can be deallocated... 
       PAW data deallocated on   16 nodes for type:  3

     Band Structure Calculation
     Davidson diagonalization with overlap

     Computing kpt #:     1  of    32 on this pool
     total cpu time spent up to now is        0.6 secs

     Computing kpt #:     2  of    32 on this pool
     total cpu time spent up to now is        0.7 secs

     Computing kpt #:     3  of    32 on this pool
     total cpu time spent up to now is        0.9 secs

     Computing kpt #:     4  of    32 on this pool
     total cpu time spent up to now is        1.0 secs

     Computing kpt #:     5  of    32 on this pool
     total cpu time spent up to now is        1.2 secs

     Computing kpt #:     6  of    32 on this pool
     total cpu time spent up to now is        1.4 secs

     Computing kpt #:     7  of    32 on this pool
     total cpu time spent up to now is        1.5 secs

     Computing kpt #:     8  of    32 on this pool
     total cpu time spent up to now is        1.6 secs

     Computing kpt #:     9  of    32 on this pool
     total cpu time spent up to now is        1.8 secs

     Computing kpt #:    10  of    32 on this pool
     total cpu time spent up to now is        1.9 secs

     Computing kpt #:    11  of    32 on this pool
     total cpu time spent up to now is        2.1 secs

     Computing kpt #:    12  of    32 on this pool
     total cpu time spent up to now is        2.2 secs

     Computing kpt #:    13  of    32 on this pool
     total cpu time spent up to now is        2.3 secs

     Computing kpt #:    14  of    32 on this pool
     total cpu time spent up to now is        2.5 secs

     Computing kpt #:    15  of    32 on this pool
     total cpu time spent up to now is        2.6 secs

     Computing kpt #:    16  of    32 on this pool
     total cpu time spent up to now is        2.8 secs

     Computing kpt #:    17  of    32 on this pool
     total cpu time spent up to now is        2.9 secs

     Computing kpt #:    18  of    32 on this pool
     total cpu time spent up to now is        3.0 secs

     Computing kpt #:    19  of    32 on this pool
     total cpu time spent up to now is        3.2 secs

     Computing kpt #:    20  of    32 on this pool
     total cpu time spent up to now is        3.4 secs

     Computing kpt #:    21  of    32 on this pool
     total cpu time spent up to now is        3.5 secs

     Computing kpt #:    22  of    32 on this pool
     total cpu time spent up to now is        3.7 secs

     Computing kpt #:    23  of    32 on this pool
     total cpu time spent up to now is        3.8 secs

     Computing kpt #:    24  of    32 on this pool
     total cpu time spent up to now is        3.9 secs

     Computing kpt #:    25  of    32 on this pool
     total cpu time spent up to now is        4.0 secs

     Computing kpt #:    26  of    32 on this pool
     total cpu time spent up to now is        4.2 secs

     Computing kpt #:    27  of    32 on this pool
     total cpu time spent up to now is        4.3 secs

     Computing kpt #:    28  of    32 on this pool
     total cpu time spent up to now is        4.5 secs

     Computing kpt #:    29  of    32 on this pool
     total cpu time spent up to now is        4.6 secs

     Computing kpt #:    30  of    32 on this pool
     total cpu time spent up to now is        4.8 secs

     Computing kpt #:    31  of    32 on this pool
     total cpu time spent up to now is        4.9 secs

     Computing kpt #:    32  of    32 on this pool
     total cpu time spent up to now is        5.0 secs

     ethr =  2.17E-13,  avg # of iterations = 29.9

     total cpu time spent up to now is        5.0 secs

     End of band structure calculation

 ------ SPIN UP ------------


          k = 0.0000 0.0000 0.0000 (   811 PWs)   bands (ev):

   -80.9893 -77.9243 -44.4944 -44.3013 -44.3013 -41.4605 -41.4008 -41.4008
    -5.3266  -4.1849   6.3312  10.3034  10.3034  11.3305  12.1829  12.7793
    12.7793  12.8550  12.8550  13.6150  13.6150  14.7460  15.1270  15.1270
    17.2725  17.2725  17.3722  22.2027  24.2561  32.0683  32.1961  32.4529
    32.4529  36.3769  36.3769  38.1824  39.6410  40.4196  40.6801  40.6801

     occupation numbers 
     1.0000   1.0000   1.0000   1.0000   1.0000   1.0000   1.0000   1.0000
     1.0000   1.0000   1.0000   1.0000   1.0000   1.0000   1.0000   1.0000
     1.0000   1.0000   1.0000   1.0000   1.0000   1.0000   1.0153   1.0153
     0.0000   0.0000   0.0000   0.0000   0.0000   0.0000   0.0000   0.0000
     0.0000   0.0000   0.0000   0.0000   0.0000   0.0000   0.0000   0.0000

          k = 0.2669-0.0951-0.0951 (   815 PWs)   bands (ev):

   -80.9869 -77.9216 -44.4909 -44.3219 -44.3064 -41.4565 -41.4249 -41.4067
    -4.9721  -4.0465   6.8997   9.7784  10.3288  10.3599  11.0391  11.8757
    12.3723  13.0941  13.2792  13.9782  14.1457  14.7984  15.2080  15.4110
    16.7125  17.1903  18.9659  23.7015  24.1275  29.8353  30.4595  32.1986
    33.0000  33.9304  34.8147  36.8785  37.6317  40.4049  40.8924  42.2223

     occupation numbers 
     1.0000   1.0000   1.0000   1.0000   1.0000   1.0000   1.0000   1.0000
     1.0000   1.0000   1.0000   1.0000   1.0000   1.0000   1.0000   1.0000
     1.0000   1.0000   1.0000   1.0000   1.0000   1.0001   1.0344   1.0817
     0.0000   0.0000   0.0000   0.0000   0.0000   0.0000   0.0000   0.0000
     0.0000   0.0000   0.0000   0.0000   0.0000   0.0000   0.0000   0.0000

          k = 0.5338-0.1902-0.1902 (   827 PWs)   bands (ev):

   -80.9824 -77.9164 -44.4853 -44.3631 -44.3167 -41.4732 -41.4496 -41.4186
    -4.1753  -3.7301   8.0170   8.2875   8.7654   9.8139  10.3511  11.1507
    12.2844  13.5133  13.6654  14.1399  14.4829  14.5143  15.7762  15.8745
    16.8977  17.0600  21.2438  23.5493  25.8873  26.8744  27.2592  29.7918
    32.6007  33.0341  33.0541  34.8717  38.6985  40.9825  43.0087  43.0710

     occupation numbers 
     1.0000   1.0000   1.0000   1.0000   1.0000   1.0000   1.0000   1.0000
     1.0000   1.0000   1.0000   1.0000   1.0000   1.0000   1.0000   1.0000
     1.0000   1.0000   1.0000   1.0000   1.0000   1.0000   0.3964   0.1900
     0.0000   0.0000   0.0000   0.0000   0.0000   0.0000   0.0000   0.0000
     0.0000   0.0000   0.0000   0.0000   0.0000   0.0000   0.0000   0.0000

          k =-0.8008 0.2853 0.2853 (   810 PWs)   bands (ev):

   -80.9801 -77.9138 -44.4817 -44.3835 -44.3211 -41.4970 -41.4455 -41.4239
    -3.6434  -3.6236   7.5971   7.7772   8.8366   9.2840  10.2733  10.9394
    12.2071  13.6746  13.9625  14.0535  14.6770  14.7876  16.0505  16.2193
    17.0033  17.0635  23.0743  23.1170  24.3038  24.8264  28.1595  28.3107
    31.9648  32.3317  33.8449  33.9098  41.6915  41.8240  43.7244  43.9577

     occupation numbers 
     1.0000   1.0000   1.0000   1.0000   1.0000   1.0000   1.0000   1.0000
     1.0000   1.0000   1.0000   1.0000   1.0000   1.0000   1.0000   1.0000
     1.0000   1.0000   1.0000   1.0000   1.0000   1.0001   0.0281   0.0021
     0.0000   0.0000   0.0000   0.0000   0.0000   0.0000   0.0000   0.0000
     0.0000   0.0000   0.0000   0.0000   0.0000   0.0000   0.0000   0.0000

          k = 0.1718 0.1718-0.1902 (   811 PWs)   bands (ev):

   -80.9869 -77.9216 -44.4909 -44.3217 -44.3063 -41.4565 -41.4248 -41.4066
    -4.9485  -4.0772   6.9827   9.7663  10.4240  10.4826  10.7133  11.6090
    12.4942  13.0614  13.1685  14.2396  14.3402  14.7376  15.2006  15.5020
    16.8782  16.9769  18.9054  23.2407  24.6136  29.8314  30.1037  32.2101
    33.0635  34.6641  34.9817  36.6144  37.4465  39.1201  42.0930  42.1352

     occupation numbers 
     1.0000   1.0000   1.0000   1.0000   1.0000   1.0000   1.0000   1.0000
     1.0000   1.0000   1.0000   1.0000   1.0000   1.0000   1.0000   1.0000
     1.0000   1.0000   1.0000   1.0000   1.0000   1.0000   1.0322   1.0271
     0.0000   0.0000   0.0000   0.0000   0.0000   0.0000   0.0000   0.0000
     0.0000   0.0000   0.0000   0.0000   0.0000   0.0000   0.0000   0.0000

          k = 0.4387 0.0767-0.2853 (   821 PWs)   bands (ev):

   -80.9835 -77.9177 -44.4868 -44.3488 -44.3176 -41.4565 -41.4514 -41.4199
    -4.3581  -3.8524   7.8458   8.7949   9.3262   9.8333  10.3450  10.8469
    12.6969  13.2474  13.5833  14.0066  14.3537  14.9867  15.1055  15.8649
    16.8304  17.1734  20.7256  23.3376  26.2977  27.9566  28.4543  30.0092
    31.3198  31.4970  35.0318  37.0490  38.4975  38.8360  41.2370  44.8364

     occupation numbers 
     1.0000   1.0000   1.0000   1.0000   1.0000   1.0000   1.0000   1.0000
     1.0000   1.0000   1.0000   1.0000   1.0000   1.0000   1.0000   1.0000
     1.0000   1.0000   1.0000   1.0000   1.0000   1.0023   1.0119   0.2062
     0.0000   0.0000   0.0000   0.0000   0.0000   0.0000   0.0000   0.0000
     0.0000   0.0000   0.0000   0.0000   0.0000   0.0000   0.0000   0.0000

          k =-0.8959 0.5522 0.1902 (   832 PWs)   bands (ev):

   -80.9801 -77.9138 -44.4822 -44.3733 -44.3323 -41.4850 -41.4459 -41.4368
    -3.7178  -3.5639   7.9343   8.0614   8.8866   9.4070   9.8885  10.0898
    12.8035  13.5092  13.7991  14.2015  14.3288  14.8741  15.7094  16.1745
    16.9430  17.2810  22.9317  23.4001  25.5205  25.9908  27.4817  27.7881
    30.3255  31.1341  34.9349  36.1405  39.8543  40.5400  42.8014  43.7401

     occupation numbers 
     1.0000   1.0000   1.0000   1.0000   1.0000   1.0000   1.0000   1.0000
     1.0000   1.0000   1.0000   1.0000   1.0000   1.0000   1.0000   1.0000
     1.0000   1.0000   1.0000   1.0000   1.0000   1.0003   0.5746   0.0045
     0.0000   0.0000   0.0000   0.0000   0.0000   0.0000   0.0000   0.0000
     0.0000   0.0000   0.0000   0.0000   0.0000   0.0000   0.0000   0.0000

          k =-0.6289 0.4571 0.0951 (   831 PWs)   bands (ev):

   -80.9801 -77.9138 -44.4822 -44.3735 -44.3321 -41.4851 -41.4459 -41.4367
    -3.7113  -3.5722   7.7809   8.4492   8.8586   9.2044   9.8899  10.0439
    12.8566  13.5096  13.8135  14.1324  14.4119  14.7745  15.6640  16.1708
    16.8078  17.6091  22.3698  23.8577  25.5405  26.1452  27.4641  27.9376
    30.3497  30.6778  35.2725  35.9445  39.9650  40.2935  42.0213  43.8853

     occupation numbers 
     1.0000   1.0000   1.0000   1.0000   1.0000   1.0000   1.0000   1.0000
     1.0000   1.0000   1.0000   1.0000   1.0000   1.0000   1.0000   1.0000
     1.0000   1.0000   1.0000   1.0000   1.0000   1.0000   0.6995   0.0048
     0.0000   0.0000   0.0000   0.0000   0.0000   0.0000   0.0000   0.0000
     0.0000   0.0000   0.0000   0.0000   0.0000   0.0000   0.0000   0.0000

          k =-0.3620 0.3620-0.0000 (   815 PWs)   bands (ev):

   -80.9835 -77.9177 -44.4865 -44.3490 -44.3174 -41.4566 -41.4512 -41.4197
    -4.3950  -3.8108   7.8137   8.9918   9.2129   9.7268  10.3172  10.8840
    12.7068  13.3414  13.5718  13.9601  14.3944  14.8960  15.1643  15.8300
    16.8181  17.3149  20.4744  23.6516  26.0247  27.9238  28.5011  30.1665
    31.3715  31.9267  34.2677  37.7778  38.1071  38.3477  40.8689  44.7231

     occupation numbers 
     1.0000   1.0000   1.0000   1.0000   1.0000   1.0000   1.0000   1.0000
     1.0000   1.0000   1.0000   1.0000   1.0000   1.0000   1.0000   1.0000
     1.0000   1.0000   1.0000   1.0000   1.0000   1.0005   1.0228   0.2727
     0.0000   0.0000   0.0000   0.0000   0.0000   0.0000   0.0000   0.0000
     0.0000   0.0000   0.0000   0.0000   0.0000   0.0000   0.0000   0.0000

          k = 0.3436 0.3436-0.3804 (   827 PWs)   bands (ev):

   -80.9824 -77.9164 -44.4852 -44.3633 -44.3166 -41.4733 -41.4495 -41.4186
    -4.0801  -3.8346   8.0176   8.1854   9.1260   9.5472  10.3048  11.2364
    12.3179  13.4390  13.5375  14.3376  14.3730  14.5848  15.6656  15.8755
    17.1683  17.3734  20.4508  22.7944  26.8486  27.3557  27.3640  29.7084
    31.8177  32.9721  33.7975  36.0134  37.2240  41.3239  42.0681  42.7380

     occupation numbers 
     1.0000   1.0000   1.0000   1.0000   1.0000   1.0000   1.0000   1.0000
     1.0000   1.0000   1.0000   1.0000   1.0000   1.0000   1.0000   1.0000
     1.0000   1.0000   1.0000   1.0000   1.0000   1.0000   0.6952   0.1883
     0.0000   0.0000   0.0000   0.0000   0.0000   0.0000   0.0000   0.0000
     0.0000   0.0000   0.0000   0.0000   0.0000   0.0000   0.0000   0.0000

          k =-0.9910 0.8192 0.0951 (   834 PWs)   bands (ev):

   -80.9801 -77.9138 -44.4820 -44.3736 -44.3322 -41.4851 -41.4457 -41.4367
    -3.6470  -3.6352   7.4842   8.3399   9.0394   9.5549   9.9092  10.1033
    12.7308  13.3783  13.7324  14.2405  14.3253  14.9502  15.6350  16.1810
    16.9731  17.6720  21.6597  23.0954  26.0627  26.7758  27.5982  28.3543
    29.6283  31.1927  34.7930  37.4487  38.8137  41.4188  41.5912  42.5748

     occupation numbers 
     1.0000   1.0000   1.0000   1.0000   1.0000   1.0000   1.0000   1.0000
     1.0000   1.0000   1.0000   1.0000   1.0000   1.0000   1.0000   1.0000
     1.0000   1.0000   1.0000   1.0000   1.0000   1.0013   0.7757   0.0041
     0.0000   0.0000   0.0000   0.0000   0.0000   0.0000   0.0000   0.0000
     0.0000   0.0000   0.0000   0.0000   0.0000   0.0000   0.0000   0.0000

          k =-0.7241 0.7241 0.0000 (   831 PWs)   bands (ev):

   -80.9790 -77.9125 -44.4804 -44.3593 -44.3590 -41.4684 -41.4682 -41.4438
    -3.4793  -3.4793   8.2966   8.3452   8.8778   9.0013   9.2129   9.3935
    13.3495  13.4365  13.4781  14.2313  14.4711  15.4399  15.5671  15.8763
    17.1908  17.3020  23.8724  24.3333  25.1973  25.9851  26.0819  26.4576
    30.3804  30.8281  35.9731  37.1661  39.3442  40.2026  41.4275  41.8100

     occupation numbers 
     1.0000   1.0000   1.0000   1.0000   1.0000   1.0000   1.0000   1.0000
     1.0000   1.0000   1.0000   1.0000   1.0000   1.0000   1.0000   1.0000
     1.0000   1.0000   1.0000   1.0000   1.0000   1.0736   0.9288   0.1871
     0.0000   0.0000   0.0000   0.0000   0.0000   0.0000   0.0000   0.0000
     0.0000   0.0000   0.0000   0.0000   0.0000   0.0000   0.0000   0.0000

          k =-0.5155-0.5155 0.5706 (   824 PWs)   bands (ev):

   -80.9801 -77.9138 -44.4819 -44.3840 -44.3216 -41.4974 -41.4456 -41.4243
    -3.6980  -3.5633   6.8659   8.1341   8.8068   9.9515  10.3341  11.5962
    11.7018  13.6643  13.6726  14.0071  14.1904  14.6433  16.0657  16.1830
    17.5288  17.9043  20.2991  22.4936  25.5659  26.7804  28.3833  28.4975
    30.4866  32.1831  33.8449  37.2299  38.0048  39.7507  42.9608  43.7196

     occupation numbers 
     1.0000   1.0000   1.0000   1.0000   1.0000   1.0000   1.0000   1.0000
     1.0000   1.0000   1.0000   1.0000   1.0000   1.0000   1.0000   1.0000
     1.0000   1.0000   1.0000   1.0000   1.0000   1.0000   0.0229   0.0039
     0.0000   0.0000   0.0000   0.0000   0.0000   0.0000   0.0000   0.0000
     0.0000   0.0000   0.0000   0.0000   0.0000   0.0000   0.0000   0.0000

          k = 0.0767 0.0767 0.0767 (   808 PWs)   bands (ev):

   -80.9893 -77.9242 -44.4940 -44.3013 -44.3013 -41.4603 -41.4008 -41.4008
    -5.2605  -4.2746   6.5699  10.3717  10.3717  10.6041  12.3773  12.3773
    12.5284  12.8835  12.8835  14.0167  14.0167  14.7790  15.1172  15.1172
    17.1760  17.1760  17.7327  21.8628  24.5981  30.1737  32.6875  32.6875
    34.1357  36.1657  36.1657  38.4250  39.0823  39.8314  39.8314  41.2236

     occupation numbers 
     1.0000   1.0000   1.0000   1.0000   1.0000   1.0000   1.0000   1.0000
     1.0000   1.0000   1.0000   1.0000   1.0000   1.0000   1.0000   1.0000
     1.0000   1.0000   1.0000   1.0000   1.0000   1.0001   1.0137   1.0137
     0.0000   0.0000   0.0000   0.0000   0.0000   0.0000   0.0000   0.0000
     0.0000   0.0000   0.0000   0.0000   0.0000   0.0000   0.0000   0.0000

          k = 0.3436-0.0184-0.0184 (   827 PWs)   bands (ev):

   -80.9870 -77.9216 -44.4913 -44.3221 -44.3065 -41.4569 -41.4251 -41.4068
    -4.8849  -4.1555   7.1680   9.4842  10.1442  10.3453  11.1004  11.9281
    12.4419  13.2534  13.4027  13.7635  13.9513  14.8628  15.2722  15.3587
    16.4157  17.3036  19.5921  22.7357  25.0797  29.6127  29.9202  32.4426
    33.0198  33.2410  34.5828  38.2214  38.8044  38.9807  41.7533  42.6025

     occupation numbers 
     1.0000   1.0000   1.0000   1.0000   1.0000   1.0000   1.0000   1.0000
     1.0000   1.0000   1.0000   1.0000   1.0000   1.0000   1.0000   1.0000
     1.0000   1.0000   1.0000   1.0000   1.0000   1.0003   1.0554   1.0805
     0.0000   0.0000   0.0000   0.0000   0.0000   0.0000   0.0000   0.0000
     0.0000   0.0000   0.0000   0.0000   0.0000   0.0000   0.0000   0.0000

          k =-0.9910 0.4571 0.4571 (   819 PWs)   bands (ev):

   -80.9824 -77.9164 -44.4851 -44.3628 -44.3165 -41.4730 -41.4494 -41.4184
    -4.1391  -3.7669   7.7776   8.2160   8.9070  10.2195  10.2591  11.4167
    12.0770  13.5276  13.7430  13.9511  14.2201  14.5636  15.8304  15.8932
    16.6093  17.2914  21.8277  22.8553  26.4023  26.8535  27.2977  29.4297
    32.0593  32.2950  33.3220  36.2237  40.4499  40.8282  41.3710  43.7368

     occupation numbers 
     1.0000   1.0000   1.0000   1.0000   1.0000   1.0000   1.0000   1.0000
     1.0000   1.0000   1.0000   1.0000   1.0000   1.0000   1.0000   1.0000
     1.0000   1.0000   1.0000   1.0000   1.0000   1.0000   0.2718   0.1609
     0.0000   0.0000   0.0000   0.0000   0.0000   0.0000   0.0000   0.0000
     0.0000   0.0000   0.0000   0.0000   0.0000   0.0000   0.0000   0.0000

          k =-0.7241 0.3620 0.3620 (   826 PWs)   bands (ev):

   -80.9801 -77.9138 -44.4821 -44.3840 -44.3214 -41.4974 -41.4458 -41.4242
    -3.6676  -3.5981   7.2840   7.9748   8.8306   9.5179  10.1577  11.1236
    12.1148  13.6722  13.8588  14.1286  14.5771  14.6516  16.0559  16.2145
    17.1510  17.2338  21.8602  23.3799  24.4330  25.6397  28.1950  28.3503
    31.2979  32.9657  33.0046  35.1211  39.4607  43.0342  43.6434  43.6816

     occupation numbers 
     1.0000   1.0000   1.0000   1.0000   1.0000   1.0000   1.0000   1.0000
     1.0000   1.0000   1.0000   1.0000   1.0000   1.0000   1.0000   1.0000
     1.0000   1.0000   1.0000   1.0000   1.0000   1.0000   0.0261   0.0023
     0.0000   0.0000   0.0000   0.0000   0.0000   0.0000   0.0000   0.0000
     0.0000   0.0000   0.0000   0.0000   0.0000   0.0000   0.0000   0.0000

          k =-0.4571 0.2669 0.2669 (   824 PWs)   bands (ev):

   -80.9824 -77.9164 -44.4851 -44.3632 -44.3166 -41.4732 -41.4494 -41.4186
    -4.1542  -3.7555   8.1973   8.2499   8.8547   9.4717  10.4195  11.0433
    12.3794  13.5187  13.5305  14.3063  14.5063  14.5896  15.6805  15.9105
    16.9841  17.2751  20.6324  23.3303  26.3897  26.8817  27.3046  30.0514
    32.1845  33.4689  33.8271  34.4773  37.1852  42.0098  42.1968  43.1560

     occupation numbers 
     1.0000   1.0000   1.0000   1.0000   1.0000   1.0000   1.0000   1.0000
     1.0000   1.0000   1.0000   1.0000   1.0000   1.0000   1.0000   1.0000
     1.0000   1.0000   1.0000   1.0000   1.0000   1.0000   0.6544   0.1368
     0.0000   0.0000   0.0000   0.0000   0.0000   0.0000   0.0000   0.0000
     0.0000   0.0000   0.0000   0.0000   0.0000   0.0000   0.0000   0.0000

          k = 0.2485 0.2485-0.1135 (   815 PWs)   bands (ev):

   -80.9869 -77.9216 -44.4913 -44.3216 -44.3061 -41.4569 -41.4247 -41.4065
    -4.8183  -4.2360   7.3936   9.3595  10.1217  10.6351  10.7584  11.3643
    12.6531  13.1438  13.1677  14.1102  14.5201  14.7535  15.2142  15.5403
    16.7747  16.8766  19.5255  22.3555  25.5880  28.8322  30.4312  31.3818
    33.3584  35.0010  35.6188  36.2195  37.8070  39.0394  42.1306  43.2710

     occupation numbers 
     1.0000   1.0000   1.0000   1.0000   1.0000   1.0000   1.0000   1.0000
     1.0000   1.0000   1.0000   1.0000   1.0000   1.0000   1.0000   1.0000
     1.0000   1.0000   1.0000   1.0000   1.0000   1.0000   1.0362   0.9755
     0.0000   0.0000   0.0000   0.0000   0.0000   0.0000   0.0000   0.0000
     0.0000   0.0000   0.0000   0.0000   0.0000   0.0000   0.0000   0.0000

          k =-1.0861 0.7241 0.3620 (   819 PWs)   bands (ev):

   -80.9835 -77.9177 -44.4866 -44.3487 -44.3177 -41.4564 -41.4513 -41.4199
    -4.2557  -3.9639   7.9539   8.4797   9.5466   9.9452  10.4114  10.7555
    12.7192  13.0732  13.6265  13.9906  14.3458  15.0176  15.1260  15.9327
    16.7962  16.9988  21.2963  22.6901  26.9211  28.0650  28.2725  29.1926
    31.1801  31.6609  35.7366  36.2980  39.3871  39.8785  42.1146  43.3251

     occupation numbers 
     1.0000   1.0000   1.0000   1.0000   1.0000   1.0000   1.0000   1.0000
     1.0000   1.0000   1.0000   1.0000   1.0000   1.0000   1.0000   1.0000
     1.0000   1.0000   1.0000   1.0000   1.0000   1.0037   1.0152   0.1100
     0.0000   0.0000   0.0000   0.0000   0.0000   0.0000   0.0000   0.0000
     0.0000   0.0000   0.0000   0.0000   0.0000   0.0000   0.0000   0.0000

          k =-0.8192 0.6289 0.2669 (   827 PWs)   bands (ev):

   -80.9801 -77.9138 -44.4820 -44.3732 -44.3320 -41.4848 -41.4457 -41.4366
    -3.7038  -3.5763   7.7031   8.0599   8.9712   9.5932   9.9322  10.1472
    12.7073  13.4440  13.7387  14.2689  14.3346  14.9475  15.7583  16.1754
    17.0676  17.1581  22.5660  23.0752  25.6469  26.3709  27.5576  27.8573
    30.2270  31.3928  34.7203  36.4874  39.8738  41.4894  42.5811  42.9539

     occupation numbers 
     1.0000   1.0000   1.0000   1.0000   1.0000   1.0000   1.0000   1.0000
     1.0000   1.0000   1.0000   1.0000   1.0000   1.0000   1.0000   1.0000
     1.0000   1.0000   1.0000   1.0000   1.0000   1.0012   0.4420   0.0045
     0.0000   0.0000   0.0000   0.0000   0.0000   0.0000   0.0000   0.0000
     0.0000   0.0000   0.0000   0.0000   0.0000   0.0000   0.0000   0.0000

          k =-0.5522 0.5338 0.1718 (   827 PWs)   bands (ev):

   -80.9801 -77.9138 -44.4819 -44.3735 -44.3320 -41.4851 -41.4456 -41.4366
    -3.6854  -3.5983   7.6039   8.4821   9.0431   9.2529   9.8759  10.0474
    12.8469  13.4356  13.7611  14.1959  14.3456  14.8414  15.6336  16.1879
    16.8274  17.8003  21.8172  23.5346  25.8713  26.5599  27.5161  28.2448
    30.0059  30.6427  35.4439  36.1699  39.4684  41.0398  41.3739  43.8511

     occupation numbers 
     1.0000   1.0000   1.0000   1.0000   1.0000   1.0000   1.0000   1.0000
     1.0000   1.0000   1.0000   1.0000   1.0000   1.0000   1.0000   1.0000
     1.0000   1.0000   1.0000   1.0000   1.0000   1.0002   0.7793   0.0036
     0.0000   0.0000   0.0000   0.0000   0.0000   0.0000   0.0000   0.0000
     0.0000   0.0000   0.0000   0.0000   0.0000   0.0000   0.0000   0.0000

          k =-0.6106-0.6106 0.8375 (   817 PWs)   bands (ev):

   -80.9824 -77.9164 -44.4849 -44.3629 -44.3163 -41.4730 -41.4493 -41.4183
    -3.9710  -3.9442   7.7943   8.1349   9.1435  10.0647  10.1892  11.4924
    12.1268  13.4322  13.5721  14.0633  14.2745  14.6310  15.7263  15.8368
    17.0795  17.3857  20.9369  22.4141  26.8326  27.3781  28.2596  28.7188
    31.6946  32.2241  33.8849  37.3177  39.0824  40.0671  40.7142  42.5799

     occupation numbers 
     1.0000   1.0000   1.0000   1.0000   1.0000   1.0000   1.0000   1.0000
     1.0000   1.0000   1.0000   1.0000   1.0000   1.0000   1.0000   1.0000
     1.0000   1.0000   1.0000   1.0000   1.0000   1.0000   0.5280   0.2588
     0.0000   0.0000   0.0000   0.0000   0.0000   0.0000   0.0000   0.0000
     0.0000   0.0000   0.0000   0.0000   0.0000   0.0000   0.0000   0.0000

          k =-0.3436-0.7057 0.7424 (   829 PWs)   bands (ev):

   -80.9801 -77.9138 -44.4820 -44.3734 -44.3321 -41.4850 -41.4457 -41.4366
    -3.6737  -3.6068   7.5078   8.1915   9.0230   9.6297   9.9715  10.1753
    12.6427  13.3860  13.7260  14.2416  14.3800  14.9788  15.7070  16.1673
    17.0761  17.3679  21.9449  22.9597  25.9469  26.6975  27.6193  28.0857
    29.8863  31.5108  34.5093  37.2658  39.5487  41.6394  41.9969  42.1600

     occupation numbers 
     1.0000   1.0000   1.0000   1.0000   1.0000   1.0000   1.0000   1.0000
     1.0000   1.0000   1.0000   1.0000   1.0000   1.0000   1.0000   1.0000
     1.0000   1.0000   1.0000   1.0000   1.0000   1.0021   0.5811   0.0051
     0.0000   0.0000   0.0000   0.0000   0.0000   0.0000   0.0000   0.0000
     0.0000   0.0000   0.0000   0.0000   0.0000   0.0000   0.0000   0.0000

          k =-0.0767-0.8008 0.6473 (   846 PWs)   bands (ev):

   -80.9790 -77.9125 -44.4807 -44.3596 -44.3596 -41.4686 -41.4686 -41.4440
    -3.4793  -3.4793   8.3011   8.3331   8.9021   8.9629   9.2227   9.3867
    13.3488  13.4341  13.4780  14.2320  14.4649  15.4556  15.5442  15.8803
    17.1976  17.2903  24.0569  24.0706  25.3859  25.7427  26.2395  26.4146
    30.4546  30.7266  36.4903  36.5025  39.8014  39.9470  41.5430  41.6336

     occupation numbers 
     1.0000   1.0000   1.0000   1.0000   1.0000   1.0000   1.0000   1.0000
     1.0000   1.0000   1.0000   1.0000   1.0000   1.0000   1.0000   1.0000
     1.0000   1.0000   1.0000   1.0000   1.0000   1.0659   0.9692   0.1805
     0.0000   0.0000   0.0000   0.0000   0.0000   0.0000   0.0000   0.0000
     0.0000   0.0000   0.0000   0.0000   0.0000   0.0000   0.0000   0.0000

          k =-0.4387-0.4387 0.6473 (   831 PWs)   bands (ev):

   -80.9801 -77.9138 -44.4823 -44.3841 -44.3215 -41.4975 -41.4459 -41.4243
    -3.6900  -3.5728   6.9790   8.0951   8.8155  10.0092  10.0243  11.4384
    11.8769  13.6685  13.7288  14.1809  14.1946  14.6352  16.0633  16.1947
    17.4133  17.6393  20.7866  22.7363  25.2515  26.4639  28.3054  28.4440
    30.7051  32.3839  33.6155  36.6858  37.8562  41.2009  43.2259  43.6995

     occupation numbers 
     1.0000   1.0000   1.0000   1.0000   1.0000   1.0000   1.0000   1.0000
     1.0000   1.0000   1.0000   1.0000   1.0000   1.0000   1.0000   1.0000
     1.0000   1.0000   1.0000   1.0000   1.0000   1.0000   0.0237   0.0032
     0.0000   0.0000   0.0000   0.0000   0.0000   0.0000   0.0000   0.0000
     0.0000   0.0000   0.0000   0.0000   0.0000   0.0000   0.0000   0.0000

          k = 0.1534 0.1534 0.1534 (   817 PWs)   bands (ev):

   -80.9892 -77.9242 -44.4942 -44.3012 -44.3012 -41.4605 -41.4007 -41.4007
    -5.0737  -4.5077   7.2315   9.4146  10.5453  10.5453  11.8589  11.8589
    12.7912  12.8965  12.8965  14.5817  14.5817  14.8063  15.0894  15.0894
    16.9462  16.9462  18.6680  21.0055  25.4685  28.3575  33.3541  33.3541
    35.4251  35.4251  36.0039  38.3292  39.2389  39.3229  39.3229  40.4553

     occupation numbers 
     1.0000   1.0000   1.0000   1.0000   1.0000   1.0000   1.0000   1.0000
     1.0000   1.0000   1.0000   1.0000   1.0000   1.0000   1.0000   1.0000
     1.0000   1.0000   1.0000   1.0000   1.0000   1.0001   1.0098   1.0098
     0.0000   0.0000   0.0000   0.0000   0.0000   0.0000   0.0000   0.0000
     0.0000   0.0000   0.0000   0.0000   0.0000   0.0000   0.0000   0.0000

          k =-1.1812 0.6289 0.6289 (   829 PWs)   bands (ev):

   -80.9870 -77.9216 -44.4913 -44.3221 -44.3065 -41.4570 -41.4251 -41.4068
    -4.7039  -4.3649   7.7390   8.7907  10.3271  10.4422  10.7499  11.7182
    12.5966  13.2697  13.4003  13.8791  14.0700  14.8613  15.3115  15.3652
    16.3058  17.2310  20.4700  21.6571  26.2035  28.1467  30.2058  31.9511
    33.4013  33.7482  34.3017  37.9353  39.6508  40.3683  40.7934  42.1282

     occupation numbers 
     1.0000   1.0000   1.0000   1.0000   1.0000   1.0000   1.0000   1.0000
     1.0000   1.0000   1.0000   1.0000   1.0000   1.0000   1.0000   1.0000
     1.0000   1.0000   1.0000   1.0000   1.0000   1.0003   1.0686   1.0815
     0.0004   0.0000   0.0000   0.0000   0.0000   0.0000   0.0000   0.0000
     0.0000   0.0000   0.0000   0.0000   0.0000   0.0000   0.0000   0.0000

          k =-0.9143 0.5338 0.5338 (   815 PWs)   bands (ev):

   -80.9824 -77.9164 -44.4849 -44.3627 -44.3164 -41.4728 -41.4493 -41.4184
    -4.0551  -3.8558   7.6952   8.1490   9.0593  10.1552  10.4182  11.5797
    11.9647  13.5461  13.5715  13.9750  14.1075  14.6303  15.8203  15.8447
    16.7092  17.4376  21.8286  22.1791  26.7960  27.2833  27.5948  28.9818
    31.7894  31.8705  33.7084  37.8383  39.3495  40.3906  41.4465  42.3889

     occupation numbers 
     1.0000   1.0000   1.0000   1.0000   1.0000   1.0000   1.0000   1.0000
     1.0000   1.0000   1.0000   1.0000   1.0000   1.0000   1.0000   1.0000
     1.0000   1.0000   1.0000   1.0000   1.0000   1.0000   0.2931   0.2432
     0.0000   0.0000   0.0000   0.0000   0.0000   0.0000   0.0000   0.0000
     0.0000   0.0000   0.0000   0.0000   0.0000   0.0000   0.0000   0.0000

          k =-0.7057-0.7057 1.1045 (   821 PWs)   bands (ev):

   -80.9870 -77.9216 -44.4911 -44.3219 -44.3063 -41.4568 -41.4249 -41.4067
    -4.6079  -4.4678   8.0413   8.5230  10.3522  10.5868  10.6012  11.4252
    12.6837  13.1776  13.3559  13.9478  14.4084  14.8076  15.2525  15.4458
    16.5128  17.0277  20.5287  21.4334  26.7562  27.5100  30.6651  31.0964
    33.7523  34.5094  34.5952  37.4237  38.0964  40.6541  41.9285  42.2922

     occupation numbers 
     1.0000   1.0000   1.0000   1.0000   1.0000   1.0000   1.0000   1.0000
     1.0000   1.0000   1.0000   1.0000   1.0000   1.0000   1.0000   1.0000
     1.0000   1.0000   1.0000   1.0000   1.0000   1.0001   1.0486   1.0710
     0.0000   0.0000   0.0000   0.0000   0.0000   0.0000   0.0000   0.0000
     0.0000   0.0000   0.0000   0.0000   0.0000   0.0000   0.0000   0.0000

          k =-0.4387-0.8008 1.0094 (   814 PWs)   bands (ev):

   -80.9835 -77.9177 -44.4864 -44.3486 -44.3176 -41.4562 -41.4512 -41.4199
    -4.1122  -4.1120   8.0778   8.2792   9.6964   9.9479  10.4497  10.6891
    12.8050  12.9294  13.6738  13.9247  14.3712  14.9869  15.1768  15.9620
    16.7633  16.9512  21.9045  22.0583  27.6036  27.7996  28.2556  28.5792
    31.3982  31.6274  35.9047  35.9507  40.6314  40.7653  41.8928  41.9732

     occupation numbers 
     1.0000   1.0000   1.0000   1.0000   1.0000   1.0000   1.0000   1.0000
     1.0000   1.0000   1.0000   1.0000   1.0000   1.0000   1.0000   1.0000
     1.0000   1.0000   1.0000   1.0000   1.0000   1.0023   1.0258   0.0809
     0.0000   0.0000   0.0000   0.0000   0.0000   0.0000   0.0000   0.0000
     0.0000   0.0000   0.0000   0.0000   0.0000   0.0000   0.0000   0.0000

          k =-0.2301-0.2301-0.2301 (   828 PWs)   bands (ev):

   -80.9892 -77.9243 -44.4945 -44.3013 -44.3013 -41.4608 -41.4008 -41.4008
    -4.8087  -4.7955   8.1286   8.3219  10.6753  10.6753  11.5987  11.5987
    12.8636  12.9009  12.9009  14.8072  14.8624  14.8624  15.0555  15.0555
    16.8070  16.8070  19.7442  19.9715  26.6278  26.8815  34.2701  34.2701
    34.4230  34.4230  37.3869  37.4172  39.5153  39.5153  39.7382  39.7382

     occupation numbers 
     1.0000   1.0000   1.0000   1.0000   1.0000   1.0000   1.0000   1.0000
     1.0000   1.0000   1.0000   1.0000   1.0000   1.0000   1.0000   1.0000
     1.0000   1.0000   1.0000   1.0001   1.0003   1.0003   1.0063   1.0063
     0.0000   0.0000   0.0000   0.0000   0.0000   0.0000   0.0000   0.0000
     0.0000   0.0000   0.0000   0.0000   0.0000   0.0000   0.0000   0.0000

 ------ SPIN DOWN ----------


          k = 0.0000 0.0000 0.0000 (   811 PWs)   bands (ev):

   -80.9891 -77.9244 -44.4942 -44.3011 -44.3011 -41.4607 -41.4010 -41.4010
    -5.3266  -4.1849   6.3312  10.3034  10.3034  11.3305  12.1830  12.7793
    12.7793  12.8552  12.8552  13.6151  13.6151  14.7459  15.1269  15.1269
    17.2724  17.2724  17.3722  22.2027  24.2561  32.0683  32.1961  32.4529
    32.4529  36.3769  36.3769  38.1824  39.6410  40.4196  40.6801  40.6801

     occupation numbers 
     1.0000   1.0000   1.0000   1.0000   1.0000   1.0000   1.0000   1.0000
     1.0000   1.0000   1.0000   1.0000   1.0000   1.0000   1.0000   1.0000
     1.0000   1.0000   1.0000   1.0000   1.0000   1.0000   1.0153   1.0153
     0.0000   0.0000   0.0000   0.0000   0.0000   0.0000   0.0000   0.0000
     0.0000   0.0000   0.0000   0.0000   0.0000   0.0000   0.0000   0.0000

          k = 0.2669-0.0951-0.0951 (   815 PWs)   bands (ev):

   -80.9867 -77.9218 -44.4907 -44.3217 -44.3062 -41.4567 -41.4251 -41.4069
    -4.9721  -4.0465   6.8997   9.7784  10.3288  10.3600  11.0391  11.8758
    12.3725  13.0942  13.2793  13.9783  14.1458  14.7983  15.2079  15.4108
    16.7124  17.1902  18.9659  23.7015  24.1275  29.8353  30.4595  32.1986
    33.0000  33.9304  34.8147  36.8786  37.6317  40.4049  40.8924  42.2223

     occupation numbers 
     1.0000   1.0000   1.0000   1.0000   1.0000   1.0000   1.0000   1.0000
     1.0000   1.0000   1.0000   1.0000   1.0000   1.0000   1.0000   1.0000
     1.0000   1.0000   1.0000   1.0000   1.0000   1.0001   1.0343   1.0817
     0.0000   0.0000   0.0000   0.0000   0.0000   0.0000   0.0000   0.0000
     0.0000   0.0000   0.0000   0.0000   0.0000   0.0000   0.0000   0.0000

          k = 0.5338-0.1902-0.1902 (   827 PWs)   bands (ev):

   -80.9822 -77.9166 -44.4851 -44.3629 -44.3165 -41.4733 -41.4498 -41.4188
    -4.1753  -3.7301   8.0170   8.2875   8.7654   9.8139  10.3511  11.1507
    12.2846  13.5135  13.6656  14.1399  14.4829  14.5143  15.7760  15.8743
    16.8976  17.0599  21.2438  23.5492  25.8873  26.8745  27.2591  29.7918
    32.6008  33.0341  33.0540  34.8717  38.6985  40.9825  43.0087  43.0711

     occupation numbers 
     1.0000   1.0000   1.0000   1.0000   1.0000   1.0000   1.0000   1.0000
     1.0000   1.0000   1.0000   1.0000   1.0000   1.0000   1.0000   1.0000
     1.0000   1.0000   1.0000   1.0000   1.0000   1.0000   0.3967   0.1903
     0.0000   0.0000   0.0000   0.0000   0.0000   0.0000   0.0000   0.0000
     0.0000   0.0000   0.0000   0.0000   0.0000   0.0000   0.0000   0.0000

          k =-0.8008 0.2853 0.2853 (   810 PWs)   bands (ev):

   -80.9799 -77.9140 -44.4815 -44.3833 -44.3209 -41.4972 -41.4457 -41.4241
    -3.6434  -3.6236   7.5972   7.7772   8.8367   9.2840  10.2734  10.9394
    12.2073  13.6748  13.9627  14.0534  14.6772  14.7877  16.0503  16.2191
    17.0032  17.0634  23.0743  23.1170  24.3038  24.8264  28.1595  28.3107
    31.9649  32.3317  33.8449  33.9098  41.6915  41.8240  43.7244  43.9577

     occupation numbers 
     1.0000   1.0000   1.0000   1.0000   1.0000   1.0000   1.0000   1.0000
     1.0000   1.0000   1.0000   1.0000   1.0000   1.0000   1.0000   1.0000
     1.0000   1.0000   1.0000   1.0000   1.0000   1.0001   0.0281   0.0021
     0.0000   0.0000   0.0000   0.0000   0.0000   0.0000   0.0000   0.0000
     0.0000   0.0000   0.0000   0.0000   0.0000   0.0000   0.0000   0.0000

          k = 0.1718 0.1718-0.1902 (   811 PWs)   bands (ev):

   -80.9867 -77.9218 -44.4907 -44.3215 -44.3061 -41.4567 -41.4250 -41.4068
    -4.9485  -4.0772   6.9828   9.7664  10.4240  10.4827  10.7133  11.6090
    12.4943  13.0615  13.1686  14.2396  14.3403  14.7375  15.2005  15.5019
    16.8781  16.9768  18.9054  23.2407  24.6136  29.8314  30.1037  32.2101
    33.0635  34.6641  34.9817  36.6144  37.4465  39.1201  42.0930  42.1352

     occupation numbers 
     1.0000   1.0000   1.0000   1.0000   1.0000   1.0000   1.0000   1.0000
     1.0000   1.0000   1.0000   1.0000   1.0000   1.0000   1.0000   1.0000
     1.0000   1.0000   1.0000   1.0000   1.0000   1.0000   1.0322   1.0273
     0.0000   0.0000   0.0000   0.0000   0.0000   0.0000   0.0000   0.0000
     0.0000   0.0000   0.0000   0.0000   0.0000   0.0000   0.0000   0.0000

          k = 0.4387 0.0767-0.2853 (   821 PWs)   bands (ev):

   -80.9833 -77.9179 -44.4866 -44.3486 -44.3174 -41.4567 -41.4516 -41.4201
    -4.3581  -3.8524   7.8458   8.7950   9.3263   9.8333  10.3451  10.8469
    12.6970  13.2475  13.5835  14.0067  14.3538  14.9865  15.1054  15.8648
    16.8303  17.1733  20.7256  23.3376  26.2977  27.9566  28.4543  30.0092
    31.3198  31.4970  35.0318  37.0490  38.4975  38.8360  41.2370  44.8364

     occupation numbers 
     1.0000   1.0000   1.0000   1.0000   1.0000   1.0000   1.0000   1.0000
     1.0000   1.0000   1.0000   1.0000   1.0000   1.0000   1.0000   1.0000
     1.0000   1.0000   1.0000   1.0000   1.0000   1.0023   1.0119   0.2064
     0.0000   0.0000   0.0000   0.0000   0.0000   0.0000   0.0000   0.0000
     0.0000   0.0000   0.0000   0.0000   0.0000   0.0000   0.0000   0.0000

          k =-0.8959 0.5522 0.1902 (   832 PWs)   bands (ev):

   -80.9799 -77.9140 -44.4820 -44.3731 -44.3321 -41.4851 -41.4461 -41.4370
    -3.7178  -3.5639   7.9343   8.0614   8.8866   9.4070   9.8885  10.0898
    12.8037  13.5094  13.7993  14.2016  14.3288  14.8741  15.7092  16.1744
    16.9429  17.2809  22.9317  23.4001  25.5206  25.9907  27.4817  27.7881
    30.3255  31.1341  34.9349  36.1405  39.8543  40.5400  42.8014  43.7401

     occupation numbers 
     1.0000   1.0000   1.0000   1.0000   1.0000   1.0000   1.0000   1.0000
     1.0000   1.0000   1.0000   1.0000   1.0000   1.0000   1.0000   1.0000
     1.0000   1.0000   1.0000   1.0000   1.0000   1.0003   0.5750   0.0045
     0.0000   0.0000   0.0000   0.0000   0.0000   0.0000   0.0000   0.0000
     0.0000   0.0000   0.0000   0.0000   0.0000   0.0000   0.0000   0.0000

          k =-0.6289 0.4571 0.0951 (   831 PWs)   bands (ev):

   -80.9799 -77.9140 -44.4820 -44.3733 -44.3319 -41.4853 -41.4461 -41.4369
    -3.7113  -3.5722   7.7810   8.4492   8.8586   9.2044   9.8899  10.0439
    12.8567  13.5097  13.8137  14.1325  14.4120  14.7744  15.6638  16.1706
    16.8076  17.6090  22.3698  23.8577  25.5405  26.1451  27.4641  27.9376
    30.3497  30.6778  35.2725  35.9445  39.9650  40.2935  42.0213  43.8853

     occupation numbers 
     1.0000   1.0000   1.0000   1.0000   1.0000   1.0000   1.0000   1.0000
     1.0000   1.0000   1.0000   1.0000   1.0000   1.0000   1.0000   1.0000
     1.0000   1.0000   1.0000   1.0000   1.0000   1.0000   0.6999   0.0048
     0.0000   0.0000   0.0000   0.0000   0.0000   0.0000   0.0000   0.0000
     0.0000   0.0000   0.0000   0.0000   0.0000   0.0000   0.0000   0.0000

          k =-0.3620 0.3620-0.0000 (   815 PWs)   bands (ev):

   -80.9833 -77.9179 -44.4863 -44.3488 -44.3172 -41.4568 -41.4514 -41.4199
    -4.3950  -3.8108   7.8137   8.9918   9.2129   9.7268  10.3172  10.8840
    12.7069  13.3416  13.5720  13.9602  14.3944  14.8958  15.1642  15.8298
    16.8180  17.3148  20.4744  23.6516  26.0247  27.9238  28.5011  30.1665
    31.3715  31.9267  34.2677  37.7778  38.1072  38.3477  40.8689  44.7231

     occupation numbers 
     1.0000   1.0000   1.0000   1.0000   1.0000   1.0000   1.0000   1.0000
     1.0000   1.0000   1.0000   1.0000   1.0000   1.0000   1.0000   1.0000
     1.0000   1.0000   1.0000   1.0000   1.0000   1.0005   1.0228   0.2730
     0.0000   0.0000   0.0000   0.0000   0.0000   0.0000   0.0000   0.0000
     0.0000   0.0000   0.0000   0.0000   0.0000   0.0000   0.0000   0.0000

          k = 0.3436 0.3436-0.3804 (   827 PWs)   bands (ev):

   -80.9822 -77.9166 -44.4850 -44.3631 -44.3164 -41.4735 -41.4496 -41.4188
    -4.0801  -3.8346   8.0176   8.1854   9.1260   9.5471  10.3048  11.2364
    12.3180  13.4392  13.5376  14.3375  14.3730  14.5849  15.6654  15.8753
    17.1681  17.3733  20.4508  22.7944  26.8487  27.3557  27.3640  29.7084
    31.8177  32.9721  33.7975  36.0134  37.2240  41.3239  42.0681  42.7379

     occupation numbers 
     1.0000   1.0000   1.0000   1.0000   1.0000   1.0000   1.0000   1.0000
     1.0000   1.0000   1.0000   1.0000   1.0000   1.0000   1.0000   1.0000
     1.0000   1.0000   1.0000   1.0000   1.0000   1.0000   0.6956   0.1886
     0.0000   0.0000   0.0000   0.0000   0.0000   0.0000   0.0000   0.0000
     0.0000   0.0000   0.0000   0.0000   0.0000   0.0000   0.0000   0.0000

          k =-0.9910 0.8192 0.0951 (   834 PWs)   bands (ev):

   -80.9799 -77.9140 -44.4819 -44.3734 -44.3320 -41.4853 -41.4459 -41.4369
    -3.6470  -3.6352   7.4842   8.3399   9.0394   9.5550   9.9092  10.1033
    12.7309  13.3785  13.7326  14.2406  14.3253  14.9502  15.6349  16.1809
    16.9730  17.6719  21.6597  23.0954  26.0628  26.7758  27.5983  28.3543
    29.6283  31.1927  34.7930  37.4487  38.8137  41.4188  41.5912  42.5748

     occupation numbers 
     1.0000   1.0000   1.0000   1.0000   1.0000   1.0000   1.0000   1.0000
     1.0000   1.0000   1.0000   1.0000   1.0000   1.0000   1.0000   1.0000
     1.0000   1.0000   1.0000   1.0000   1.0000   1.0013   0.7760   0.0041
     0.0000   0.0000   0.0000   0.0000   0.0000   0.0000   0.0000   0.0000
     0.0000   0.0000   0.0000   0.0000   0.0000   0.0000   0.0000   0.0000

          k =-0.7241 0.7241 0.0000 (   831 PWs)   bands (ev):

   -80.9788 -77.9127 -44.4802 -44.3591 -44.3588 -41.4686 -41.4684 -41.4440
    -3.4793  -3.4793   8.2966   8.3452   8.8779   9.0013   9.2130   9.3935
    13.3497  13.4366  13.4782  14.2314  14.4712  15.4398  15.5669  15.8761
    17.1907  17.3019  23.8724  24.3333  25.1973  25.9851  26.0819  26.4576
    30.3804  30.8281  35.9731  37.1661  39.3442  40.2026  41.4275  41.8100

     occupation numbers 
     1.0000   1.0000   1.0000   1.0000   1.0000   1.0000   1.0000   1.0000
     1.0000   1.0000   1.0000   1.0000   1.0000   1.0000   1.0000   1.0000
     1.0000   1.0000   1.0000   1.0000   1.0000   1.0737   0.9290   0.1873
     0.0000   0.0000   0.0000   0.0000   0.0000   0.0000   0.0000   0.0000
     0.0000   0.0000   0.0000   0.0000   0.0000   0.0000   0.0000   0.0000

          k =-0.5155-0.5155 0.5706 (   824 PWs)   bands (ev):

   -80.9799 -77.9140 -44.4817 -44.3838 -44.3214 -41.4976 -41.4458 -41.4245
    -3.6980  -3.5633   6.8659   8.1341   8.8068   9.9515  10.3341  11.5962
    11.7019  13.6644  13.6727  14.0072  14.1904  14.6433  16.0655  16.1829
    17.5287  17.9042  20.2991  22.4936  25.5659  26.7804  28.3833  28.4975
    30.4866  32.1831  33.8449  37.2299  38.0048  39.7507  42.9608  43.7196

     occupation numbers 
     1.0000   1.0000   1.0000   1.0000   1.0000   1.0000   1.0000   1.0000
     1.0000   1.0000   1.0000   1.0000   1.0000   1.0000   1.0000   1.0000
     1.0000   1.0000   1.0000   1.0000   1.0000   1.0000   0.0230   0.0039
     0.0000   0.0000   0.0000   0.0000   0.0000   0.0000   0.0000   0.0000
     0.0000   0.0000   0.0000   0.0000   0.0000   0.0000   0.0000   0.0000

          k = 0.0767 0.0767 0.0767 (   808 PWs)   bands (ev):

   -80.9890 -77.9244 -44.4938 -44.3011 -44.3011 -41.4605 -41.4010 -41.4010
    -5.2605  -4.2746   6.5699  10.3718  10.3718  10.6041  12.3773  12.3773
    12.5285  12.8837  12.8837  14.0168  14.0168  14.7789  15.1171  15.1171
    17.1759  17.1759  17.7327  21.8628  24.5981  30.1737  32.6875  32.6875
    34.1357  36.1657  36.1657  38.4250  39.0823  39.8314  39.8314  41.2236

     occupation numbers 
     1.0000   1.0000   1.0000   1.0000   1.0000   1.0000   1.0000   1.0000
     1.0000   1.0000   1.0000   1.0000   1.0000   1.0000   1.0000   1.0000
     1.0000   1.0000   1.0000   1.0000   1.0000   1.0001   1.0137   1.0137
     0.0000   0.0000   0.0000   0.0000   0.0000   0.0000   0.0000   0.0000
     0.0000   0.0000   0.0000   0.0000   0.0000   0.0000   0.0000   0.0000

          k = 0.3436-0.0184-0.0184 (   827 PWs)   bands (ev):

   -80.9868 -77.9218 -44.4911 -44.3219 -44.3063 -41.4571 -41.4252 -41.4070
    -4.8849  -4.1555   7.1680   9.4842  10.1442  10.3454  11.1004  11.9281
    12.4420  13.2535  13.4028  13.7635  13.9514  14.8627  15.2721  15.3585
    16.4156  17.3035  19.5921  22.7357  25.0797  29.6127  29.9202  32.4426
    33.0198  33.2411  34.5828  38.2214  38.8044  38.9807  41.7533  42.6025

     occupation numbers 
     1.0000   1.0000   1.0000   1.0000   1.0000   1.0000   1.0000   1.0000
     1.0000   1.0000   1.0000   1.0000   1.0000   1.0000   1.0000   1.0000
     1.0000   1.0000   1.0000   1.0000   1.0000   1.0003   1.0554   1.0805
     0.0000   0.0000   0.0000   0.0000   0.0000   0.0000   0.0000   0.0000
     0.0000   0.0000   0.0000   0.0000   0.0000   0.0000   0.0000   0.0000

          k =-0.9910 0.4571 0.4571 (   819 PWs)   bands (ev):

   -80.9822 -77.9166 -44.4849 -44.3626 -44.3163 -41.4732 -41.4496 -41.4186
    -4.1391  -3.7669   7.7776   8.2160   8.9070  10.2196  10.2592  11.4167
    12.0771  13.5277  13.7432  13.9512  14.2202  14.5636  15.8303  15.8930
    16.6092  17.2913  21.8277  22.8553  26.4023  26.8536  27.2977  29.4297
    32.0593  32.2951  33.3219  36.2237  40.4499  40.8282  41.3710  43.7368

     occupation numbers 
     1.0000   1.0000   1.0000   1.0000   1.0000   1.0000   1.0000   1.0000
     1.0000   1.0000   1.0000   1.0000   1.0000   1.0000   1.0000   1.0000
     1.0000   1.0000   1.0000   1.0000   1.0000   1.0000   0.2721   0.1611
     0.0000   0.0000   0.0000   0.0000   0.0000   0.0000   0.0000   0.0000
     0.0000   0.0000   0.0000   0.0000   0.0000   0.0000   0.0000   0.0000

          k =-0.7241 0.3620 0.3620 (   826 PWs)   bands (ev):

   -80.9799 -77.9140 -44.4819 -44.3838 -44.3212 -41.4976 -41.4459 -41.4244
    -3.6676  -3.5981   7.2841   7.9748   8.8306   9.5179  10.1578  11.1236
    12.1150  13.6724  13.8589  14.1286  14.5772  14.6517  16.0557  16.2143
    17.1509  17.2337  21.8602  23.3799  24.4330  25.6397  28.1951  28.3503
    31.2979  32.9657  33.0045  35.1211  39.4607  43.0342  43.6433  43.6816

     occupation numbers 
     1.0000   1.0000   1.0000   1.0000   1.0000   1.0000   1.0000   1.0000
     1.0000   1.0000   1.0000   1.0000   1.0000   1.0000   1.0000   1.0000
     1.0000   1.0000   1.0000   1.0000   1.0000   1.0000   0.0262   0.0023
     0.0000   0.0000   0.0000   0.0000   0.0000   0.0000   0.0000   0.0000
     0.0000   0.0000   0.0000   0.0000   0.0000   0.0000   0.0000   0.0000

          k =-0.4571 0.2669 0.2669 (   824 PWs)   bands (ev):

   -80.9822 -77.9166 -44.4849 -44.3630 -44.3164 -41.4734 -41.4496 -41.4188
    -4.1542  -3.7555   8.1973   8.2499   8.8547   9.4717  10.4195  11.0433
    12.3795  13.5189  13.5306  14.3062  14.5064  14.5897  15.6804  15.9104
    16.9839  17.2750  20.6324  23.3303  26.3897  26.8817  27.3046  30.0514
    32.1845  33.4689  33.8271  34.4773  37.1852  42.0099  42.1968  43.1560

     occupation numbers 
     1.0000   1.0000   1.0000   1.0000   1.0000   1.0000   1.0000   1.0000
     1.0000   1.0000   1.0000   1.0000   1.0000   1.0000   1.0000   1.0000
     1.0000   1.0000   1.0000   1.0000   1.0000   1.0000   0.6548   0.1370
     0.0000   0.0000   0.0000   0.0000   0.0000   0.0000   0.0000   0.0000
     0.0000   0.0000   0.0000   0.0000   0.0000   0.0000   0.0000   0.0000

          k = 0.2485 0.2485-0.1135 (   815 PWs)   bands (ev):

   -80.9867 -77.9218 -44.4911 -44.3214 -44.3059 -41.4571 -41.4249 -41.4067
    -4.8183  -4.2360   7.3937   9.3595  10.1217  10.6352  10.7584  11.3643
    12.6533  13.1440  13.1678  14.1103  14.5201  14.7534  15.2141  15.5402
    16.7746  16.8765  19.5255  22.3555  25.5880  28.8322  30.4313  31.3818
    33.3584  35.0010  35.6188  36.2195  37.8071  39.0394  42.1306  43.2710

     occupation numbers 
     1.0000   1.0000   1.0000   1.0000   1.0000   1.0000   1.0000   1.0000
     1.0000   1.0000   1.0000   1.0000   1.0000   1.0000   1.0000   1.0000
     1.0000   1.0000   1.0000   1.0000   1.0000   1.0000   1.0362   0.9757
     0.0000   0.0000   0.0000   0.0000   0.0000   0.0000   0.0000   0.0000
     0.0000   0.0000   0.0000   0.0000   0.0000   0.0000   0.0000   0.0000

          k =-1.0861 0.7241 0.3620 (   819 PWs)   bands (ev):

   -80.9833 -77.9179 -44.4864 -44.3485 -44.3175 -41.4566 -41.4515 -41.4201
    -4.2557  -3.9639   7.9539   8.4797   9.5466   9.9452  10.4114  10.7555
    12.7193  13.0733  13.6267  13.9907  14.3459  15.0175  15.1259  15.9326
    16.7960  16.9987  21.2963  22.6901  26.9211  28.0651  28.2725  29.1926
    31.1801  31.6609  35.7366  36.2980  39.3871  39.8785  42.1146  43.3251

     occupation numbers 
     1.0000   1.0000   1.0000   1.0000   1.0000   1.0000   1.0000   1.0000
     1.0000   1.0000   1.0000   1.0000   1.0000   1.0000   1.0000   1.0000
     1.0000   1.0000   1.0000   1.0000   1.0000   1.0037   1.0151   0.1101
     0.0000   0.0000   0.0000   0.0000   0.0000   0.0000   0.0000   0.0000
     0.0000   0.0000   0.0000   0.0000   0.0000   0.0000   0.0000   0.0000

          k =-0.8192 0.6289 0.2669 (   827 PWs)   bands (ev):

   -80.9799 -77.9140 -44.4818 -44.3730 -44.3318 -41.4850 -41.4459 -41.4368
    -3.7038  -3.5763   7.7031   8.0599   8.9712   9.5932   9.9322  10.1472
    12.7075  13.4442  13.7388  14.2690  14.3347  14.9474  15.7582  16.1752
    17.0674  17.1580  22.5660  23.0752  25.6469  26.3709  27.5576  27.8572
    30.2270  31.3928  34.7203  36.4874  39.8738  41.4894  42.5811  42.9539

     occupation numbers 
     1.0000   1.0000   1.0000   1.0000   1.0000   1.0000   1.0000   1.0000
     1.0000   1.0000   1.0000   1.0000   1.0000   1.0000   1.0000   1.0000
     1.0000   1.0000   1.0000   1.0000   1.0000   1.0012   0.4423   0.0045
     0.0000   0.0000   0.0000   0.0000   0.0000   0.0000   0.0000   0.0000
     0.0000   0.0000   0.0000   0.0000   0.0000   0.0000   0.0000   0.0000

          k =-0.5522 0.5338 0.1718 (   827 PWs)   bands (ev):

   -80.9799 -77.9140 -44.4817 -44.3733 -44.3318 -41.4853 -41.4458 -41.4368
    -3.6854  -3.5983   7.6039   8.4821   9.0432   9.2529   9.8759  10.0474
    12.8471  13.4358  13.7613  14.1960  14.3456  14.8413  15.6334  16.1877
    16.8272  17.8002  21.8172  23.5346  25.8713  26.5599  27.5161  28.2447
    30.0059  30.6427  35.4439  36.1699  39.4684  41.0398  41.3738  43.8511

     occupation numbers 
     1.0000   1.0000   1.0000   1.0000   1.0000   1.0000   1.0000   1.0000
     1.0000   1.0000   1.0000   1.0000   1.0000   1.0000   1.0000   1.0000
     1.0000   1.0000   1.0000   1.0000   1.0000   1.0002   0.7797   0.0036
     0.0000   0.0000   0.0000   0.0000   0.0000   0.0000   0.0000   0.0000
     0.0000   0.0000   0.0000   0.0000   0.0000   0.0000   0.0000   0.0000

          k =-0.6106-0.6106 0.8375 (   817 PWs)   bands (ev):

   -80.9822 -77.9166 -44.4847 -44.3627 -44.3161 -41.4732 -41.4495 -41.4185
    -3.9710  -3.9442   7.7943   8.1349   9.1435  10.0647  10.1892  11.4925
    12.1269  13.4323  13.5722  14.0633  14.2746  14.6310  15.7262  15.8367
    17.0794  17.3856  20.9369  22.4141  26.8326  27.3781  28.2596  28.7188
    31.6946  32.2241  33.8849  37.3177  39.0824  40.0671  40.7142  42.5799

     occupation numbers 
     1.0000   1.0000   1.0000   1.0000   1.0000   1.0000   1.0000   1.0000
     1.0000   1.0000   1.0000   1.0000   1.0000   1.0000   1.0000   1.0000
     1.0000   1.0000   1.0000   1.0000   1.0000   1.0000   0.5283   0.2591
     0.0000   0.0000   0.0000   0.0000   0.0000   0.0000   0.0000   0.0000
     0.0000   0.0000   0.0000   0.0000   0.0000   0.0000   0.0000   0.0000

          k =-0.3436-0.7057 0.7424 (   829 PWs)   bands (ev):

   -80.9799 -77.9140 -44.4818 -44.3732 -44.3319 -41.4852 -41.4458 -41.4368
    -3.6737  -3.6068   7.5079   8.1915   9.0230   9.6298   9.9715  10.1753
    12.6428  13.3861  13.7261  14.2417  14.3801  14.9787  15.7069  16.1671
    17.0759  17.3677  21.9449  22.9597  25.9470  26.6975  27.6193  28.0857
    29.8863  31.5108  34.5093  37.2658  39.5487  41.6395  41.9969  42.1600

     occupation numbers 
     1.0000   1.0000   1.0000   1.0000   1.0000   1.0000   1.0000   1.0000
     1.0000   1.0000   1.0000   1.0000   1.0000   1.0000   1.0000   1.0000
     1.0000   1.0000   1.0000   1.0000   1.0000   1.0021   0.5814   0.0051
     0.0000   0.0000   0.0000   0.0000   0.0000   0.0000   0.0000   0.0000
     0.0000   0.0000   0.0000   0.0000   0.0000   0.0000   0.0000   0.0000

          k =-0.0767-0.8008 0.6473 (   846 PWs)   bands (ev):

   -80.9788 -77.9127 -44.4805 -44.3594 -44.3594 -41.4688 -41.4688 -41.4442
    -3.4793  -3.4793   8.3011   8.3331   8.9022   8.9629   9.2227   9.3867
    13.3489  13.4343  13.4782  14.2321  14.4650  15.4555  15.5441  15.8802
    17.1975  17.2902  24.0569  24.0706  25.3860  25.7427  26.2395  26.4146
    30.4547  30.7266  36.4903  36.5025  39.8014  39.9470  41.5430  41.6336

     occupation numbers 
     1.0000   1.0000   1.0000   1.0000   1.0000   1.0000   1.0000   1.0000
     1.0000   1.0000   1.0000   1.0000   1.0000   1.0000   1.0000   1.0000
     1.0000   1.0000   1.0000   1.0000   1.0000   1.0660   0.9694   0.1807
     0.0000   0.0000   0.0000   0.0000   0.0000   0.0000   0.0000   0.0000
     0.0000   0.0000   0.0000   0.0000   0.0000   0.0000   0.0000   0.0000

          k =-0.4387-0.4387 0.6473 (   831 PWs)   bands (ev):

   -80.9799 -77.9140 -44.4821 -44.3839 -44.3213 -41.4977 -41.4461 -41.4245
    -3.6900  -3.5728   6.9791   8.0951   8.8155  10.0092  10.0243  11.4384
    11.8770  13.6687  13.7289  14.1809  14.1947  14.6352  16.0631  16.1945
    17.4132  17.6392  20.7866  22.7363  25.2515  26.4639  28.3054  28.4440
    30.7051  32.3839  33.6154  36.6858  37.8562  41.2009  43.2259  43.6995

     occupation numbers 
     1.0000   1.0000   1.0000   1.0000   1.0000   1.0000   1.0000   1.0000
     1.0000   1.0000   1.0000   1.0000   1.0000   1.0000   1.0000   1.0000
     1.0000   1.0000   1.0000   1.0000   1.0000   1.0000   0.0237   0.0032
     0.0000   0.0000   0.0000   0.0000   0.0000   0.0000   0.0000   0.0000
     0.0000   0.0000   0.0000   0.0000   0.0000   0.0000   0.0000   0.0000

          k = 0.1534 0.1534 0.1534 (   817 PWs)   bands (ev):

   -80.9890 -77.9244 -44.4940 -44.3010 -44.3010 -41.4607 -41.4009 -41.4009
    -5.0737  -4.5077   7.2315   9.4146  10.5454  10.5454  11.8589  11.8589
    12.7914  12.8967  12.8967  14.5818  14.5818  14.8062  15.0892  15.0892
    16.9461  16.9461  18.6680  21.0055  25.4685  28.3575  33.3541  33.3541
    35.4251  35.4251  36.0039  38.3292  39.2389  39.3229  39.3229  40.4553

     occupation numbers 
     1.0000   1.0000   1.0000   1.0000   1.0000   1.0000   1.0000   1.0000
     1.0000   1.0000   1.0000   1.0000   1.0000   1.0000   1.0000   1.0000
     1.0000   1.0000   1.0000   1.0000   1.0000   1.0001   1.0098   1.0098
     0.0000   0.0000   0.0000   0.0000   0.0000   0.0000   0.0000   0.0000
     0.0000   0.0000   0.0000   0.0000   0.0000   0.0000   0.0000   0.0000

          k =-1.1812 0.6289 0.6289 (   829 PWs)   bands (ev):

   -80.9868 -77.9218 -44.4911 -44.3219 -44.3063 -41.4572 -41.4253 -41.4070
    -4.7039  -4.3649   7.7390   8.7907  10.3271  10.4422  10.7499  11.7183
    12.5967  13.2699  13.4004  13.8792  14.0700  14.8611  15.3114  15.3650
    16.3056  17.2309  20.4700  21.6571  26.2035  28.1467  30.2058  31.9511
    33.4013  33.7482  34.3016  37.9353  39.6508  40.3683  40.7934  42.1282

     occupation numbers 
     1.0000   1.0000   1.0000   1.0000   1.0000   1.0000   1.0000   1.0000
     1.0000   1.0000   1.0000   1.0000   1.0000   1.0000   1.0000   1.0000
     1.0000   1.0000   1.0000   1.0000   1.0000   1.0003   1.0686   1.0815
     0.0004   0.0000   0.0000   0.0000   0.0000   0.0000   0.0000   0.0000
     0.0000   0.0000   0.0000   0.0000   0.0000   0.0000   0.0000   0.0000

          k =-0.9143 0.5338 0.5338 (   815 PWs)   bands (ev):

   -80.9822 -77.9166 -44.4847 -44.3625 -44.3162 -41.4730 -41.4495 -41.4186
    -4.0551  -3.8558   7.6953   8.1491   9.0593  10.1552  10.4182  11.5798
    11.9648  13.5462  13.5716  13.9751  14.1076  14.6303  15.8202  15.8446
    16.7091  17.4375  21.8286  22.1791  26.7960  27.2833  27.5948  28.9818
    31.7894  31.8705  33.7084  37.8383  39.3495  40.3906  41.4465  42.3889

     occupation numbers 
     1.0000   1.0000   1.0000   1.0000   1.0000   1.0000   1.0000   1.0000
     1.0000   1.0000   1.0000   1.0000   1.0000   1.0000   1.0000   1.0000
     1.0000   1.0000   1.0000   1.0000   1.0000   1.0000   0.2934   0.2435
     0.0000   0.0000   0.0000   0.0000   0.0000   0.0000   0.0000   0.0000
     0.0000   0.0000   0.0000   0.0000   0.0000   0.0000   0.0000   0.0000

          k =-0.7057-0.7057 1.1045 (   821 PWs)   bands (ev):

   -80.9868 -77.9218 -44.4909 -44.3217 -44.3061 -41.4569 -41.4251 -41.4068
    -4.6079  -4.4678   8.0413   8.5230  10.3522  10.5869  10.6013  11.4252
    12.6839  13.1777  13.3561  13.9479  14.4084  14.8075  15.2524  15.4457
    16.5127  17.0276  20.5287  21.4334  26.7562  27.5100  30.6651  31.0964
    33.7523  34.5094  34.5952  37.4237  38.0964  40.6541  41.9285  42.2922

     occupation numbers 
     1.0000   1.0000   1.0000   1.0000   1.0000   1.0000   1.0000   1.0000
     1.0000   1.0000   1.0000   1.0000   1.0000   1.0000   1.0000   1.0000
     1.0000   1.0000   1.0000   1.0000   1.0000   1.0001   1.0486   1.0711
     0.0000   0.0000   0.0000   0.0000   0.0000   0.0000   0.0000   0.0000
     0.0000   0.0000   0.0000   0.0000   0.0000   0.0000   0.0000   0.0000

          k =-0.4387-0.8008 1.0094 (   814 PWs)   bands (ev):

   -80.9833 -77.9179 -44.4862 -44.3484 -44.3174 -41.4564 -41.4513 -41.4201
    -4.1122  -4.1120   8.0778   8.2792   9.6964   9.9479  10.4497  10.6891
    12.8051  12.9295  13.6740  13.9248  14.3713  14.9868  15.1767  15.9619
    16.7631  16.9511  21.9045  22.0583  27.6037  27.7995  28.2557  28.5792
    31.3983  31.6274  35.9047  35.9507  40.6314  40.7652  41.8928  41.9732

     occupation numbers 
     1.0000   1.0000   1.0000   1.0000   1.0000   1.0000   1.0000   1.0000
     1.0000   1.0000   1.0000   1.0000   1.0000   1.0000   1.0000   1.0000
     1.0000   1.0000   1.0000   1.0000   1.0000   1.0023   1.0258   0.0811
     0.0000   0.0000   0.0000   0.0000   0.0000   0.0000   0.0000   0.0000
     0.0000   0.0000   0.0000   0.0000   0.0000   0.0000   0.0000   0.0000

          k =-0.2301-0.2301-0.2301 (   828 PWs)   bands (ev):

   -80.9890 -77.9245 -44.4943 -44.3011 -44.3011 -41.4610 -41.4010 -41.4010
    -4.8087  -4.7955   8.1286   8.3219  10.6754  10.6754  11.5987  11.5987
    12.8637  12.9011  12.9011  14.8070  14.8624  14.8624  15.0554  15.0554
    16.8069  16.8069  19.7443  19.9715  26.6278  26.8815  34.2701  34.2701
    34.4230  34.4230  37.3869  37.4172  39.5153  39.5153  39.7381  39.7381

     occupation numbers 
     1.0000   1.0000   1.0000   1.0000   1.0000   1.0000   1.0000   1.0000
     1.0000   1.0000   1.0000   1.0000   1.0000   1.0000   1.0000   1.0000
     1.0000   1.0000   1.0000   1.0001   1.0003   1.0003   1.0063   1.0063
     0.0000   0.0000   0.0000   0.0000   0.0000   0.0000   0.0000   0.0000
     0.0000   0.0000   0.0000   0.0000   0.0000   0.0000   0.0000   0.0000

     the Fermi energy is    15.7745 ev
     (compare with:    15.7920 eV, computed in scf)

     Writing all to output data dir ./tmp/CoO.save/
 
     init_run     :      0.14s CPU      0.18s WALL (       1 calls)
     electrons    :      4.50s CPU      4.61s WALL (       1 calls)

     Called by init_run:
     wfcinit      :      0.00s CPU      0.00s WALL (       1 calls)
     wfcinit:atom :      0.00s CPU      0.00s WALL (      32 calls)
     wfcinit:wfcr :      0.16s CPU      0.18s WALL (      32 calls)
     potinit      :      0.05s CPU      0.06s WALL (       1 calls)
     hinit0       :      0.07s CPU      0.08s WALL (       1 calls)

     Called by electrons:
     c_bands      :      4.50s CPU      4.60s WALL (       1 calls)
     v_of_rho     :      0.01s CPU      0.02s WALL (       1 calls)
     v_h          :      0.00s CPU      0.00s WALL (       1 calls)
     v_xc         :      0.01s CPU      0.01s WALL (       1 calls)
     newd         :      0.00s CPU      0.01s WALL (       1 calls)
     PAW_pot      :      0.03s CPU      0.03s WALL (       1 calls)

     Called by c_bands:
     init_us_2    :      0.00s CPU      0.00s WALL (      32 calls)
     init_us_2:cp :      0.00s CPU      0.00s WALL (      32 calls)
     cegterg      :      4.26s CPU      4.34s WALL (      61 calls)

     Called by sum_band:

     Called by *egterg:
     cdiaghg      :      1.71s CPU      1.73s WALL (     984 calls)
     cegterg:over :      0.19s CPU      0.19s WALL (     952 calls)
     cegterg:upda :      0.03s CPU      0.03s WALL (     952 calls)
     cegterg:last :      0.07s CPU      0.07s WALL (     448 calls)
     h_psi        :      2.34s CPU      2.41s WALL (    1045 calls)
     s_psi        :      0.03s CPU      0.03s WALL (    1045 calls)
     g_psi        :      0.00s CPU      0.00s WALL (     952 calls)

     Called by h_psi:
     h_psi:calbec :      0.08s CPU      0.08s WALL (    1045 calls)
     vloc_psi     :      2.23s CPU      2.29s WALL (    1045 calls)
     add_vuspsi   :      0.03s CPU      0.03s WALL (    1045 calls)

     General routines
     calbec       :      0.08s CPU      0.08s WALL (    1045 calls)
     fft          :      0.00s CPU      0.01s WALL (      23 calls)
     ffts         :      0.00s CPU      0.00s WALL (       2 calls)
     fftw         :      2.04s CPU      2.10s WALL (   40542 calls)
     interpolate  :      0.00s CPU      0.00s WALL (       2 calls)
     davcio       :      0.00s CPU      0.00s WALL (      64 calls)
 
     Parallel routines

     PAW routines
     PAW_pot      :      0.03s CPU      0.03s WALL (       1 calls)
 
     PWSCF        :      4.94s CPU      5.20s WALL

 
   This run was terminated on:  12:52:29  23Jun2024            

=------------------------------------------------------------------------------=
   JOB DONE.
=------------------------------------------------------------------------------=
