
     Program PWSCF v.7.2 starts on 23Jun2024 at 12:52:19 

     This program is part of the open-source Quantum ESPRESSO suite
     for quantum simulation of materials; please cite
         "P. Giannozzi et al., J. Phys.:Condens. Matter 21 395502 (2009);
         "P. Giannozzi et al., J. Phys.:Condens. Matter 29 465901 (2017);
         "P. Giannozzi et al., J. Chem. Phys. 152 154105 (2020);
          URL http://www.quantum-espresso.org", 
     in publications or presentations arising from this work. More details at
     http://www.quantum-espresso.org/quote

     Parallel version (MPI), running on    32 processors

     MPI processes distributed on     1 nodes
     245513 MiB available memory on the printing compute node when the environment starts
 
     Waiting for input...
     Reading input from standard input

     Current dimensions of program PWSCF are:
     Max number of different atomic species (ntypx) = 10
     Max number of k-points (npk) =  40000
     Max angular momentum in pseudopotentials (lmaxx) =  4
     Message from routine volume:
     axis vectors are left-handed
     file O.pbesol-n-kjpaw_psl.0.1.UPF: wavefunction(s)  2P renormalized
     Message from routine setup:
     using ibrav=0 with symmetry is DISCOURAGED, use correct ibrav instead
 
     K-points division:     npool     =       2
     R & G space division:  proc/nbgrp/npool/nimage =      16
     Subspace diagonalization in iterative solution of the eigenvalue problem:
     a serial algorithm will be used

 
     Parallelization info
     --------------------
     sticks:   dense  smooth     PW     G-vecs:    dense   smooth      PW
     Min          72      36     12                 1159      408      79
     Max          73      37     13                 1162      409      81
     Sum        1167     587    195                18569     6541    1269
 
     Using Slab Decomposition
 


     bravais-lattice index     =            0
     lattice parameter (alat)  =       8.0000  a.u.
     unit-cell volume          =     235.7543 (a.u.)^3
     number of atoms/cell      =            4
     number of atomic types    =            3
     number of electrons       =        46.00
     number of Kohn-Sham states=           28
     kinetic-energy cutoff     =      35.0000  Ry
     charge density cutoff     =     280.0000  Ry
     scf convergence threshold =      1.0E-10
     mixing beta               =       0.7000
     number of iterations used =            8  plain     mixing
     Exchange-correlation= SLA  PW   PSX  PSC
                           (   1   4  10   8   0   0   0)

     celldm(1)=   8.000000  celldm(2)=   0.000000  celldm(3)=   0.000000
     celldm(4)=   0.000000  celldm(5)=   0.000000  celldm(6)=   0.000000

     crystal axes: (cart. coord. in units of alat)
               a(1) = (   0.570726   0.570726   1.031099 )  
               a(2) = (   0.570726   1.031099   0.570726 )  
               a(3) = (   1.031099   0.570726   0.570726 )  

     reciprocal axes: (cart. coord. in units 2 pi/alat)
               b(1) = ( -0.570621 -0.570621  1.601531 )  
               b(2) = ( -0.570621  1.601531 -0.570621 )  
               b(3) = (  1.601531 -0.570621 -0.570621 )  


     PseudoPot. # 1 for Co read from file:
     ./co_pbesol_v1.2.uspp.F.UPF
     MD5 check sum: 3b4cd4e7cc7df4da9fdede0fd33e2193
     Pseudo is Ultrasoft + core correction, Zval = 17.0
     Generated by new atomic code, or converted to UPF format
     Using radial grid of  863 points,  6 beta functions with: 
                l(1) =   0
                l(2) =   0
                l(3) =   1
                l(4) =   1
                l(5) =   2
                l(6) =   2
     Q(r) pseudized with  8 coefficients,  rinner =    1.200   1.200   1.200
                                                       1.200   1.200

     PseudoPot. # 2 for Co read from file:
     ./co_pbesol_v1.2.uspp.F.UPF
     MD5 check sum: 3b4cd4e7cc7df4da9fdede0fd33e2193
     Pseudo is Ultrasoft + core correction, Zval = 17.0
     Generated by new atomic code, or converted to UPF format
     Using radial grid of  863 points,  6 beta functions with: 
                l(1) =   0
                l(2) =   0
                l(3) =   1
                l(4) =   1
                l(5) =   2
                l(6) =   2
     Q(r) pseudized with  8 coefficients,  rinner =    1.200   1.200   1.200
                                                       1.200   1.200

     PseudoPot. # 3 for O  read from file:
     ./O.pbesol-n-kjpaw_psl.0.1.UPF
     MD5 check sum: 126339daddaa87477ab44acfa0b5aa00
     Pseudo is Projector augmented-wave + core cor, Zval =  6.0
     Generated using "atomic" code by A. Dal Corso  v.6.0 svn rev. 13079
     Shape of augmentation charge: BESSEL
     Using radial grid of 1095 points,  4 beta functions with: 
                l(1) =   0
                l(2) =   0
                l(3) =   1
                l(4) =   1
     Q(r) pseudized with 0 coefficients 


     atomic species   valence    mass     pseudopotential
        Co1           17.00    58.93319     Co( 1.00)
        Co2           17.00    58.93319     Co( 1.00)
        O              6.00    15.99900     O ( 1.00)

     Starting magnetic structure 
     atomic species   magnetization
        Co1          0.500
        Co2         -0.500
        O            0.000

     12 Sym. Ops., with inversion, found


                                    s                        frac. trans.

      isym =  1     identity                                     

 cryst.   s( 1) = (     1          0          0      )
                  (     0          1          0      )
                  (     0          0          1      )

 cart.    s( 1) = (  1.0000000  0.0000000  0.0000000 )
                  (  0.0000000  1.0000000  0.0000000 )
                  (  0.0000000  0.0000000  1.0000000 )


      isym =  2     180 deg rotation - cart. axis [1,-1,0]       

 cryst.   s( 2) = (    -1          0          0      )
                  (     0          0         -1      )
                  (     0         -1          0      )

 cart.    s( 2) = ( -0.0000000 -1.0000000 -0.0000000 )
                  ( -1.0000000 -0.0000000 -0.0000000 )
                  ( -0.0000000 -0.0000000 -1.0000000 )


      isym =  3     180 deg rotation - cart. axis [-1,0,1]       

 cryst.   s( 3) = (     0          0         -1      )
                  (     0         -1          0      )
                  (    -1          0          0      )

 cart.    s( 3) = ( -0.0000000 -0.0000000 -1.0000000 )
                  ( -0.0000000 -1.0000000 -0.0000000 )
                  ( -1.0000000 -0.0000000 -0.0000000 )


      isym =  4     180 deg rotation - cart. axis [0,1,-1]       

 cryst.   s( 4) = (     0         -1          0      )
                  (    -1          0          0      )
                  (     0          0         -1      )

 cart.    s( 4) = ( -1.0000000 -0.0000000 -0.0000000 )
                  ( -0.0000000 -0.0000000 -1.0000000 )
                  ( -0.0000000 -1.0000000 -0.0000000 )


      isym =  5     120 deg rotation - cart. axis [-1,-1,-1]     

 cryst.   s( 5) = (     0          1          0      )
                  (     0          0          1      )
                  (     1          0          0      )

 cart.    s( 5) = (  0.0000000  1.0000000  0.0000000 )
                  (  0.0000000  0.0000000  1.0000000 )
                  (  1.0000000  0.0000000  0.0000000 )


      isym =  6     120 deg rotation - cart. axis [1,1,1]        

 cryst.   s( 6) = (     0          0          1      )
                  (     1          0          0      )
                  (     0          1          0      )

 cart.    s( 6) = (  0.0000000  0.0000000  1.0000000 )
                  (  1.0000000  0.0000000  0.0000000 )
                  (  0.0000000  1.0000000  0.0000000 )


      isym =  7     inversion                                    

 cryst.   s( 7) = (    -1          0          0      )
                  (     0         -1          0      )
                  (     0          0         -1      )

 cart.    s( 7) = ( -1.0000000 -0.0000000 -0.0000000 )
                  ( -0.0000000 -1.0000000 -0.0000000 )
                  ( -0.0000000 -0.0000000 -1.0000000 )


      isym =  8     inv. 180 deg rotation - cart. axis [1,-1,0]  

 cryst.   s( 8) = (     1          0          0      )
                  (     0          0          1      )
                  (     0          1          0      )

 cart.    s( 8) = (  0.0000000  1.0000000  0.0000000 )
                  (  1.0000000  0.0000000  0.0000000 )
                  (  0.0000000  0.0000000  1.0000000 )


      isym =  9     inv. 180 deg rotation - cart. axis [-1,0,1]  

 cryst.   s( 9) = (     0          0          1      )
                  (     0          1          0      )
                  (     1          0          0      )

 cart.    s( 9) = (  0.0000000  0.0000000  1.0000000 )
                  (  0.0000000  1.0000000  0.0000000 )
                  (  1.0000000  0.0000000  0.0000000 )


      isym = 10     inv. 180 deg rotation - cart. axis [0,1,-1]  

 cryst.   s(10) = (     0          1          0      )
                  (     1          0          0      )
                  (     0          0          1      )

 cart.    s(10) = (  1.0000000  0.0000000  0.0000000 )
                  (  0.0000000  0.0000000  1.0000000 )
                  (  0.0000000  1.0000000  0.0000000 )


      isym = 11     inv. 120 deg rotation - cart. axis [-1,-1,-1]

 cryst.   s(11) = (     0         -1          0      )
                  (     0          0         -1      )
                  (    -1          0          0      )

 cart.    s(11) = ( -0.0000000 -1.0000000 -0.0000000 )
                  ( -0.0000000 -0.0000000 -1.0000000 )
                  ( -1.0000000 -0.0000000 -0.0000000 )


      isym = 12     inv. 120 deg rotation - cart. axis [1,1,1]   

 cryst.   s(12) = (     0          0         -1      )
                  (    -1          0          0      )
                  (     0         -1          0      )

 cart.    s(12) = ( -0.0000000 -0.0000000 -1.0000000 )
                  ( -1.0000000 -0.0000000 -0.0000000 )
                  ( -0.0000000 -1.0000000 -0.0000000 )


   Cartesian axes

     site n.     atom                  positions (alat units)
         1           Co1 tau(   1) = (   0.0000000   0.0000000   0.0000000  )
         2           Co2 tau(   2) = (   1.0862757   1.0862757   1.0862757  )
         3           O   tau(   3) = (   0.5431378   0.5431378   0.5431378  )
         4           O   tau(   4) = (   1.6294135   1.6294135   1.6294135  )

   Crystallographic axes

     site n.     atom                  positions (cryst. coord.)
         1           Co1 tau(   1) = (  0.0000000  0.0000000  0.0000000  )
         2           Co2 tau(   2) = (  0.5000000  0.5000000  0.5000000  )
         3           O   tau(   3) = (  0.2500000  0.2500000  0.2500000  )
         4           O   tau(   4) = (  0.7500000  0.7500000  0.7500000  )

     number of k points=     6  Marzari-Vanderbilt smearing, width (Ry)=  0.0200
                       cart. coord. in units 2pi/alat
        k(    1) = (   0.0000000   0.0000000   0.0000000), wk =   0.0370370
        k(    2) = (   0.5338435  -0.1902071  -0.1902071), wk =   0.2222222
        k(    3) = (   0.3436365   0.3436365  -0.3804141), wk =   0.2222222
        k(    4) = (  -0.7240506   0.7240506   0.0000000), wk =   0.2222222
        k(    5) = (   0.1534294   0.1534294   0.1534294), wk =   0.0740741
        k(    6) = (  -0.9142576   0.5338435   0.5338435), wk =   0.2222222

                       cryst. coord.
        k(    1) = (   0.0000000   0.0000000   0.0000000), wk =   0.0370370
        k(    2) = (   0.0000000   0.0000000   0.3333333), wk =   0.2222222
        k(    3) = (   0.0000000   0.3333333   0.3333333), wk =   0.2222222
        k(    4) = (   0.0000000   0.3333333  -0.3333333), wk =   0.2222222
        k(    5) = (   0.3333333   0.3333333   0.3333333), wk =   0.0740741
        k(    6) = (   0.3333333   0.3333333  -0.3333333), wk =   0.2222222

     Dense  grid:    18569 G-vectors     FFT dimensions: (  60,  60,  60)

     Smooth grid:     6541 G-vectors     FFT dimensions: (  40,  40,  40)

     Dynamical RAM for                 wfc:       0.02 MB

     Dynamical RAM for     wfc (w. buffer):       0.15 MB

     Dynamical RAM for           str. fact:       0.05 MB

     Dynamical RAM for           local pot:       0.00 MB

     Dynamical RAM for          nlocal pot:       0.04 MB

     Dynamical RAM for                qrad:       4.03 MB

     Dynamical RAM for          rho,v,vnew:       0.77 MB

     Dynamical RAM for               rhoin:       0.26 MB

     Dynamical RAM for            rho*nmix:       0.57 MB

     Dynamical RAM for           G-vectors:       0.07 MB

     Dynamical RAM for          h,s,v(r/c):       0.14 MB

     Dynamical RAM for          <psi|beta>:       0.02 MB

     Dynamical RAM for                 psi:       0.04 MB

     Dynamical RAM for                hpsi:       0.04 MB

     Dynamical RAM for                spsi:       0.04 MB

     Dynamical RAM for      wfcinit/wfcrot:       0.08 MB

     Dynamical RAM for           addusdens:       1.69 MB

     Estimated static dynamical RAM per process >       6.10 MB

     Estimated max dynamical RAM per process >       8.36 MB

     Estimated total dynamical RAM >     258.36 MB

     Check: negative core charge=   -0.000041
     Generating pointlists ...
     new r_m :   0.2019 (alat units)  1.6154 (a.u.) for type    1
     new r_m :   0.2019 (alat units)  1.6154 (a.u.) for type    2
     new r_m :   0.2019 (alat units)  1.6154 (a.u.) for type    3

     Initial potential from superposition of free atoms

     starting charge      44.0000, renormalised to      46.0000
     Starting wfcs are   34 randomized atomic wfcs
     Checking if some PAW data can be deallocated... 
       PAW data deallocated on   16 nodes for type:  3

     total cpu time spent up to now is        0.5 secs

     Self-consistent Calculation

     iteration #  1     ecut=    35.00 Ry     beta= 0.70
     Davidson diagonalization with overlap

---- Real-time Memory Report at c_bands before calling an iterative solver
           111 MiB given to the printing process from OS
             0 MiB allocation reported by mallinfo(arena+hblkhd)
        244729 MiB available memory on the node where the printing process lives
------------------
     ethr =  1.00E-02,  avg # of iterations =  3.0

     total cpu time spent up to now is        0.7 secs

     total energy              =    -671.00051031 Ry
     estimated scf accuracy    <      13.20825100 Ry

     total magnetization       =    -0.00 Bohr mag/cell
     absolute magnetization    =     8.36 Bohr mag/cell

     iteration #  2     ecut=    35.00 Ry     beta= 0.70
     Davidson diagonalization with overlap

---- Real-time Memory Report at c_bands before calling an iterative solver
           116 MiB given to the printing process from OS
             0 MiB allocation reported by mallinfo(arena+hblkhd)
        244664 MiB available memory on the node where the printing process lives
------------------
     ethr =  1.00E-02,  avg # of iterations =  3.2

     total cpu time spent up to now is        0.9 secs

     total energy              =    -672.97105274 Ry
     estimated scf accuracy    <      60.21424333 Ry

     total magnetization       =    -0.00 Bohr mag/cell
     absolute magnetization    =     0.59 Bohr mag/cell

     iteration #  3     ecut=    35.00 Ry     beta= 0.70
     Davidson diagonalization with overlap

---- Real-time Memory Report at c_bands before calling an iterative solver
           117 MiB given to the printing process from OS
             0 MiB allocation reported by mallinfo(arena+hblkhd)
        244661 MiB available memory on the node where the printing process lives
------------------
     ethr =  1.00E-02,  avg # of iterations =  2.8

     total cpu time spent up to now is        1.1 secs

     total energy              =    -678.64018648 Ry
     estimated scf accuracy    <       0.34789840 Ry

     total magnetization       =    -0.01 Bohr mag/cell
     absolute magnetization    =     5.33 Bohr mag/cell

     iteration #  4     ecut=    35.00 Ry     beta= 0.70
     Davidson diagonalization with overlap

---- Real-time Memory Report at c_bands before calling an iterative solver
           117 MiB given to the printing process from OS
             0 MiB allocation reported by mallinfo(arena+hblkhd)
        244662 MiB available memory on the node where the printing process lives
------------------
     ethr =  7.56E-04,  avg # of iterations =  2.2

     total cpu time spent up to now is        1.2 secs

     total energy              =    -678.64841810 Ry
     estimated scf accuracy    <       0.22691462 Ry

     total magnetization       =     0.43 Bohr mag/cell
     absolute magnetization    =     4.93 Bohr mag/cell

     iteration #  5     ecut=    35.00 Ry     beta= 0.70
     Davidson diagonalization with overlap

---- Real-time Memory Report at c_bands before calling an iterative solver
           117 MiB given to the printing process from OS
             0 MiB allocation reported by mallinfo(arena+hblkhd)
        244661 MiB available memory on the node where the printing process lives
------------------
     ethr =  4.93E-04,  avg # of iterations =  2.3

     total cpu time spent up to now is        1.3 secs

     total energy              =    -678.40848769 Ry
     estimated scf accuracy    <      10.98662343 Ry

     total magnetization       =    -2.75 Bohr mag/cell
     absolute magnetization    =     3.78 Bohr mag/cell

     iteration #  6     ecut=    35.00 Ry     beta= 0.70
     Davidson diagonalization with overlap

---- Real-time Memory Report at c_bands before calling an iterative solver
           118 MiB given to the printing process from OS
             0 MiB allocation reported by mallinfo(arena+hblkhd)
        244661 MiB available memory on the node where the printing process lives
------------------
     ethr =  4.93E-04,  avg # of iterations =  2.2

     total cpu time spent up to now is        1.5 secs

     total energy              =    -678.71761293 Ry
     estimated scf accuracy    <       0.02989537 Ry

     total magnetization       =     0.27 Bohr mag/cell
     absolute magnetization    =     5.00 Bohr mag/cell

     iteration #  7     ecut=    35.00 Ry     beta= 0.70
     Davidson diagonalization with overlap

---- Real-time Memory Report at c_bands before calling an iterative solver
           118 MiB given to the printing process from OS
             0 MiB allocation reported by mallinfo(arena+hblkhd)
        244658 MiB available memory on the node where the printing process lives
------------------
     ethr =  6.50E-05,  avg # of iterations =  1.8

     total cpu time spent up to now is        1.6 secs

     total energy              =    -678.72096648 Ry
     estimated scf accuracy    <       0.04107289 Ry

     total magnetization       =    -0.25 Bohr mag/cell
     absolute magnetization    =     4.85 Bohr mag/cell

     iteration #  8     ecut=    35.00 Ry     beta= 0.70
     Davidson diagonalization with overlap

---- Real-time Memory Report at c_bands before calling an iterative solver
           118 MiB given to the printing process from OS
             0 MiB allocation reported by mallinfo(arena+hblkhd)
        244658 MiB available memory on the node where the printing process lives
------------------
     ethr =  6.50E-05,  avg # of iterations =  1.0

     total cpu time spent up to now is        1.7 secs

     total energy              =    -678.72090615 Ry
     estimated scf accuracy    <       0.01133061 Ry

     total magnetization       =    -0.13 Bohr mag/cell
     absolute magnetization    =     4.87 Bohr mag/cell

     iteration #  9     ecut=    35.00 Ry     beta= 0.70
     Davidson diagonalization with overlap

---- Real-time Memory Report at c_bands before calling an iterative solver
           118 MiB given to the printing process from OS
             0 MiB allocation reported by mallinfo(arena+hblkhd)
        244658 MiB available memory on the node where the printing process lives
------------------
     ethr =  2.46E-05,  avg # of iterations =  1.0

     total cpu time spent up to now is        1.8 secs

     total energy              =    -678.72106404 Ry
     estimated scf accuracy    <       0.00009587 Ry

     total magnetization       =    -0.01 Bohr mag/cell
     absolute magnetization    =     4.87 Bohr mag/cell

     iteration # 10     ecut=    35.00 Ry     beta= 0.70
     Davidson diagonalization with overlap

---- Real-time Memory Report at c_bands before calling an iterative solver
           118 MiB given to the printing process from OS
             0 MiB allocation reported by mallinfo(arena+hblkhd)
        244658 MiB available memory on the node where the printing process lives
------------------
     ethr =  2.08E-07,  avg # of iterations =  2.2

     total cpu time spent up to now is        2.0 secs

     total energy              =    -678.72107690 Ry
     estimated scf accuracy    <       0.00011211 Ry

     total magnetization       =     0.01 Bohr mag/cell
     absolute magnetization    =     4.87 Bohr mag/cell

     iteration # 11     ecut=    35.00 Ry     beta= 0.70
     Davidson diagonalization with overlap

---- Real-time Memory Report at c_bands before calling an iterative solver
           118 MiB given to the printing process from OS
             0 MiB allocation reported by mallinfo(arena+hblkhd)
        244656 MiB available memory on the node where the printing process lives
------------------
     ethr =  2.08E-07,  avg # of iterations =  1.0

     total cpu time spent up to now is        2.1 secs

     total energy              =    -678.72107922 Ry
     estimated scf accuracy    <       0.00001745 Ry

     total magnetization       =     0.01 Bohr mag/cell
     absolute magnetization    =     4.86 Bohr mag/cell

     iteration # 12     ecut=    35.00 Ry     beta= 0.70
     Davidson diagonalization with overlap

---- Real-time Memory Report at c_bands before calling an iterative solver
           118 MiB given to the printing process from OS
             0 MiB allocation reported by mallinfo(arena+hblkhd)
        244655 MiB available memory on the node where the printing process lives
------------------
     ethr =  3.79E-08,  avg # of iterations =  1.0

     total cpu time spent up to now is        2.2 secs

     total energy              =    -678.72107971 Ry
     estimated scf accuracy    <       0.00000123 Ry

     total magnetization       =    -0.00 Bohr mag/cell
     absolute magnetization    =     4.86 Bohr mag/cell

     iteration # 13     ecut=    35.00 Ry     beta= 0.70
     Davidson diagonalization with overlap

---- Real-time Memory Report at c_bands before calling an iterative solver
           118 MiB given to the printing process from OS
             0 MiB allocation reported by mallinfo(arena+hblkhd)
        244653 MiB available memory on the node where the printing process lives
------------------
     ethr =  2.68E-09,  avg # of iterations =  1.2

     total cpu time spent up to now is        2.3 secs

     total energy              =    -678.72107977 Ry
     estimated scf accuracy    <       0.00000077 Ry

     total magnetization       =     0.00 Bohr mag/cell
     absolute magnetization    =     4.86 Bohr mag/cell

     iteration # 14     ecut=    35.00 Ry     beta= 0.70
     Davidson diagonalization with overlap

---- Real-time Memory Report at c_bands before calling an iterative solver
           118 MiB given to the printing process from OS
             0 MiB allocation reported by mallinfo(arena+hblkhd)
        244653 MiB available memory on the node where the printing process lives
------------------
     ethr =  1.67E-09,  avg # of iterations =  1.0

     total cpu time spent up to now is        2.4 secs

     total energy              =    -678.72107979 Ry
     estimated scf accuracy    <       0.00000004 Ry

     total magnetization       =    -0.00 Bohr mag/cell
     absolute magnetization    =     4.86 Bohr mag/cell

     iteration # 15     ecut=    35.00 Ry     beta= 0.70
     Davidson diagonalization with overlap

---- Real-time Memory Report at c_bands before calling an iterative solver
           118 MiB given to the printing process from OS
             0 MiB allocation reported by mallinfo(arena+hblkhd)
        244653 MiB available memory on the node where the printing process lives
------------------
     ethr =  8.25E-11,  avg # of iterations =  1.3

     total cpu time spent up to now is        2.6 secs

     total energy              =    -678.72107979 Ry
     estimated scf accuracy    <          5.8E-09 Ry

     total magnetization       =    -0.00 Bohr mag/cell
     absolute magnetization    =     4.86 Bohr mag/cell

     iteration # 16     ecut=    35.00 Ry     beta= 0.70
     Davidson diagonalization with overlap

---- Real-time Memory Report at c_bands before calling an iterative solver
           119 MiB given to the printing process from OS
             0 MiB allocation reported by mallinfo(arena+hblkhd)
        244653 MiB available memory on the node where the printing process lives
------------------
     ethr =  1.26E-11,  avg # of iterations =  1.1

     total cpu time spent up to now is        2.7 secs

     total energy              =    -678.72107979 Ry
     estimated scf accuracy    <          7.8E-09 Ry

     total magnetization       =     0.00 Bohr mag/cell
     absolute magnetization    =     4.86 Bohr mag/cell

     iteration # 17     ecut=    35.00 Ry     beta= 0.70
     Davidson diagonalization with overlap

---- Real-time Memory Report at c_bands before calling an iterative solver
           119 MiB given to the printing process from OS
             0 MiB allocation reported by mallinfo(arena+hblkhd)
        244653 MiB available memory on the node where the printing process lives
------------------
     ethr =  1.26E-11,  avg # of iterations =  1.0

     total cpu time spent up to now is        2.8 secs

     total energy              =    -678.72107979 Ry
     estimated scf accuracy    <          2.0E-10 Ry

     total magnetization       =    -0.00 Bohr mag/cell
     absolute magnetization    =     4.86 Bohr mag/cell

     iteration # 18     ecut=    35.00 Ry     beta= 0.70
     Davidson diagonalization with overlap

---- Real-time Memory Report at c_bands before calling an iterative solver
           119 MiB given to the printing process from OS
             0 MiB allocation reported by mallinfo(arena+hblkhd)
        244654 MiB available memory on the node where the printing process lives
------------------
     ethr =  4.29E-13,  avg # of iterations =  1.3
 
     Magnetic moment per site  (integrated on atomic sphere of radius R)
     atom   1 (R=0.202)  charge= 14.5424  magn=  2.2507
     atom   2 (R=0.202)  charge= 14.5424  magn= -2.2507
     atom   3 (R=0.202)  charge=  5.6499  magn=  0.0000
     atom   4 (R=0.202)  charge=  5.6499  magn=  0.0000

     total cpu time spent up to now is        2.9 secs

     End of self-consistent calculation

 ------ SPIN UP ------------


          k = 0.0000 0.0000 0.0000 (   811 PWs)   bands (ev):

   -80.9892 -77.9244 -44.4943 -44.3012 -44.3012 -41.4606 -41.4010 -41.4010
    -5.3266  -4.1849   6.3312  10.3034  10.3034  11.3305  12.1830  12.7793
    12.7793  12.8551  12.8551  13.6150  13.6150  14.7460  15.1269  15.1269
    17.2724  17.2724  17.3722  22.2027

     occupation numbers 
     1.0000   1.0000   1.0000   1.0000   1.0000   1.0000   1.0000   1.0000
     1.0000   1.0000   1.0000   1.0000   1.0000   1.0000   1.0000   1.0000
     1.0000   1.0000   1.0000   1.0000   1.0000   1.0000   1.0125   1.0125
     0.0000   0.0000   0.0000   0.0000

          k = 0.5338-0.1902-0.1902 (   827 PWs)   bands (ev):

   -80.9823 -77.9165 -44.4852 -44.3630 -44.3166 -41.4733 -41.4497 -41.4187
    -4.1753  -3.7300   8.0170   8.2875   8.7654   9.8139  10.3511  11.1507
    12.2845  13.5134  13.6655  14.1399  14.4828  14.5143  15.7761  15.8744
    16.8976  17.0599  21.2438  23.5493

     occupation numbers 
     1.0000   1.0000   1.0000   1.0000   1.0000   1.0000   1.0000   1.0000
     1.0000   1.0000   1.0000   1.0000   1.0000   1.0000   1.0000   1.0000
     1.0000   1.0000   1.0000   1.0000   1.0000   1.0000   0.4414   0.2205
     0.0000   0.0000   0.0000   0.0000

          k = 0.3436 0.3436-0.3804 (   827 PWs)   bands (ev):

   -80.9823 -77.9165 -44.4851 -44.3632 -44.3165 -41.4734 -41.4496 -41.4187
    -4.0801  -3.8345   8.0176   8.1854   9.1260   9.5472  10.3048  11.2364
    12.3180  13.4391  13.5375  14.3375  14.3730  14.5849  15.6655  15.8754
    17.1682  17.3733  20.4508  22.7944

     occupation numbers 
     1.0000   1.0000   1.0000   1.0000   1.0000   1.0000   1.0000   1.0000
     1.0000   1.0000   1.0000   1.0000   1.0000   1.0000   1.0000   1.0000
     1.0000   1.0000   1.0000   1.0000   1.0000   1.0000   0.7421   0.2186
     0.0000   0.0000   0.0000   0.0000

          k =-0.7241 0.7241 0.0000 (   831 PWs)   bands (ev):

   -80.9789 -77.9126 -44.4803 -44.3592 -44.3589 -41.4685 -41.4683 -41.4439
    -3.4793  -3.4792   8.2966   8.3452   8.8779   9.0013   9.2130   9.3935
    13.3496  13.4366  13.4782  14.2313  14.4712  15.4398  15.5670  15.8762
    17.1908  17.3019  23.8724  24.3333

     occupation numbers 
     1.0000   1.0000   1.0000   1.0000   1.0000   1.0000   1.0000   1.0000
     1.0000   1.0000   1.0000   1.0000   1.0000   1.0000   1.0000   1.0000
     1.0000   1.0000   1.0000   1.0000   1.0000   1.0794   0.9605   0.2172
     0.0000   0.0000   0.0000   0.0000

          k = 0.1534 0.1534 0.1534 (   817 PWs)   bands (ev):

   -80.9891 -77.9243 -44.4941 -44.3011 -44.3011 -41.4606 -41.4008 -41.4008
    -5.0737  -4.5077   7.2315   9.4146  10.5453  10.5453  11.8589  11.8589
    12.7913  12.8966  12.8966  14.5817  14.5817  14.8063  15.0893  15.0893
    16.9461  16.9461  18.6680  21.0055

     occupation numbers 
     1.0000   1.0000   1.0000   1.0000   1.0000   1.0000   1.0000   1.0000
     1.0000   1.0000   1.0000   1.0000   1.0000   1.0000   1.0000   1.0000
     1.0000   1.0000   1.0000   1.0000   1.0000   1.0001   1.0079   1.0079
     0.0000   0.0000   0.0000   0.0000

          k =-0.9143 0.5338 0.5338 (   815 PWs)   bands (ev):

   -80.9823 -77.9165 -44.4848 -44.3626 -44.3163 -41.4730 -41.4494 -41.4185
    -4.0551  -3.8558   7.6952   8.1491   9.0593  10.1552  10.4182  11.5798
    11.9648  13.5462  13.5715  13.9751  14.1075  14.6303  15.8202  15.8447
    16.7091  17.4375  21.8286  22.1791

     occupation numbers 
     1.0000   1.0000   1.0000   1.0000   1.0000   1.0000   1.0000   1.0000
     1.0000   1.0000   1.0000   1.0000   1.0000   1.0000   1.0000   1.0000
     1.0000   1.0000   1.0000   1.0000   1.0000   1.0000   0.3324   0.2786
     0.0000   0.0000   0.0000   0.0000

 ------ SPIN DOWN ----------


          k = 0.0000 0.0000 0.0000 (   811 PWs)   bands (ev):

   -80.9892 -77.9244 -44.4943 -44.3012 -44.3012 -41.4606 -41.4010 -41.4010
    -5.3266  -4.1849   6.3312  10.3034  10.3034  11.3305  12.1830  12.7793
    12.7793  12.8551  12.8551  13.6150  13.6150  14.7460  15.1269  15.1269
    17.2725  17.2725  17.3722  22.2027

     occupation numbers 
     1.0000   1.0000   1.0000   1.0000   1.0000   1.0000   1.0000   1.0000
     1.0000   1.0000   1.0000   1.0000   1.0000   1.0000   1.0000   1.0000
     1.0000   1.0000   1.0000   1.0000   1.0000   1.0000   1.0125   1.0125
     0.0000   0.0000   0.0000   0.0000

          k = 0.5338-0.1902-0.1902 (   827 PWs)   bands (ev):

   -80.9823 -77.9165 -44.4852 -44.3630 -44.3166 -41.4733 -41.4497 -41.4187
    -4.1753  -3.7300   8.0170   8.2875   8.7654   9.8139  10.3511  11.1507
    12.2845  13.5134  13.6655  14.1399  14.4828  14.5143  15.7761  15.8744
    16.8976  17.0599  21.2438  23.5493

     occupation numbers 
     1.0000   1.0000   1.0000   1.0000   1.0000   1.0000   1.0000   1.0000
     1.0000   1.0000   1.0000   1.0000   1.0000   1.0000   1.0000   1.0000
     1.0000   1.0000   1.0000   1.0000   1.0000   1.0000   0.4413   0.2205
     0.0000   0.0000   0.0000   0.0000

          k = 0.3436 0.3436-0.3804 (   827 PWs)   bands (ev):

   -80.9823 -77.9165 -44.4851 -44.3632 -44.3165 -41.4734 -41.4496 -41.4187
    -4.0801  -3.8345   8.0176   8.1854   9.1260   9.5472  10.3048  11.2364
    12.3179  13.4391  13.5375  14.3375  14.3730  14.5849  15.6655  15.8754
    17.1682  17.3733  20.4508  22.7944

     occupation numbers 
     1.0000   1.0000   1.0000   1.0000   1.0000   1.0000   1.0000   1.0000
     1.0000   1.0000   1.0000   1.0000   1.0000   1.0000   1.0000   1.0000
     1.0000   1.0000   1.0000   1.0000   1.0000   1.0000   0.7421   0.2186
     0.0000   0.0000   0.0000   0.0000

          k =-0.7241 0.7241 0.0000 (   831 PWs)   bands (ev):

   -80.9789 -77.9126 -44.4803 -44.3592 -44.3589 -41.4685 -41.4683 -41.4439
    -3.4793  -3.4792   8.2966   8.3452   8.8779   9.0013   9.2130   9.3935
    13.3496  13.4366  13.4782  14.2313  14.4712  15.4398  15.5670  15.8762
    17.1908  17.3019  23.8724  24.3333

     occupation numbers 
     1.0000   1.0000   1.0000   1.0000   1.0000   1.0000   1.0000   1.0000
     1.0000   1.0000   1.0000   1.0000   1.0000   1.0000   1.0000   1.0000
     1.0000   1.0000   1.0000   1.0000   1.0000   1.0794   0.9605   0.2172
     0.0000   0.0000   0.0000   0.0000

          k = 0.1534 0.1534 0.1534 (   817 PWs)   bands (ev):

   -80.9891 -77.9243 -44.4941 -44.3011 -44.3011 -41.4606 -41.4008 -41.4008
    -5.0737  -4.5077   7.2315   9.4146  10.5453  10.5453  11.8589  11.8589
    12.7913  12.8966  12.8966  14.5817  14.5817  14.8063  15.0893  15.0893
    16.9461  16.9461  18.6680  21.0055

     occupation numbers 
     1.0000   1.0000   1.0000   1.0000   1.0000   1.0000   1.0000   1.0000
     1.0000   1.0000   1.0000   1.0000   1.0000   1.0000   1.0000   1.0000
     1.0000   1.0000   1.0000   1.0000   1.0000   1.0001   1.0079   1.0079
     0.0000   0.0000   0.0000   0.0000

          k =-0.9143 0.5338 0.5338 (   815 PWs)   bands (ev):

   -80.9823 -77.9165 -44.4848 -44.3626 -44.3163 -41.4729 -41.4494 -41.4185
    -4.0551  -3.8558   7.6952   8.1491   9.0593  10.1552  10.4182  11.5798
    11.9648  13.5462  13.5715  13.9751  14.1075  14.6303  15.8202  15.8447
    16.7091  17.4375  21.8286  22.1791

     occupation numbers 
     1.0000   1.0000   1.0000   1.0000   1.0000   1.0000   1.0000   1.0000
     1.0000   1.0000   1.0000   1.0000   1.0000   1.0000   1.0000   1.0000
     1.0000   1.0000   1.0000   1.0000   1.0000   1.0000   0.3324   0.2786
     0.0000   0.0000   0.0000   0.0000

     the Fermi energy is    15.7920 ev

!    total energy              =    -678.72107979 Ry
     estimated scf accuracy    <          3.1E-11 Ry
     smearing contrib. (-TS)   =      -0.00696360 Ry
     internal energy E=F+TS    =    -678.71411619 Ry

     The total energy is F=E-TS. E is the sum of the following terms:
     one-electron contribution =    -341.32806602 Ry
     hartree contribution      =     200.33497958 Ry
     xc contribution           =     -79.52201482 Ry
     ewald contribution        =    -439.97286945 Ry
     one-center paw contrib.   =     -18.22614548 Ry
      -> PAW hartree energy AE =       0.00000000 Ry
      -> PAW hartree energy PS =       0.00000000 Ry
      -> PAW xc energy AE      =       0.00000000 Ry
      -> PAW xc energy PS      =       0.00000000 Ry
      -> total E_H with PAW    =     200.33497958 Ry
      -> total E_XC with PAW   =     -79.52201482 Ry

     total magnetization       =     0.00 Bohr mag/cell
     absolute magnetization    =     4.86 Bohr mag/cell

     convergence has been achieved in  18 iterations

     Writing all to output data dir ./tmp/CoO.save/
 
     init_run     :      0.16s CPU      0.27s WALL (       1 calls)
     electrons    :      2.26s CPU      2.39s WALL (       1 calls)

     Called by init_run:
     wfcinit      :      0.03s CPU      0.06s WALL (       1 calls)
     wfcinit:atom :      0.00s CPU      0.00s WALL (       6 calls)
     wfcinit:wfcr :      0.03s CPU      0.05s WALL (       6 calls)
     potinit      :      0.06s CPU      0.07s WALL (       1 calls)
     hinit0       :      0.07s CPU      0.11s WALL (       1 calls)

     Called by electrons:
     c_bands      :      1.12s CPU      1.18s WALL (      18 calls)
     sum_band     :      0.31s CPU      0.32s WALL (      18 calls)
     v_of_rho     :      0.18s CPU      0.21s WALL (      19 calls)
     v_h          :      0.00s CPU      0.01s WALL (      19 calls)
     v_xc         :      0.18s CPU      0.20s WALL (      19 calls)
     newd         :      0.05s CPU      0.07s WALL (      19 calls)
     PAW_pot      :      0.61s CPU      0.62s WALL (      19 calls)
     mix_rho      :      0.02s CPU      0.02s WALL (      18 calls)

     Called by c_bands:
     init_us_2    :      0.00s CPU      0.00s WALL (     222 calls)
     init_us_2:cp :      0.00s CPU      0.00s WALL (     222 calls)
     cegterg      :      1.07s CPU      1.12s WALL (     108 calls)

     Called by sum_band:
     sum_band:wei :      0.01s CPU      0.01s WALL (      18 calls)
     sum_band:loo :      0.19s CPU      0.20s WALL (      18 calls)
     sum_band:buf :      0.00s CPU      0.00s WALL (     108 calls)
     sum_band:ini :      0.00s CPU      0.00s WALL (     108 calls)
     sum_band:cal :      0.01s CPU      0.01s WALL (     108 calls)
     sum_band:bec :      0.00s CPU      0.00s WALL (     108 calls)
     addusdens    :      0.08s CPU      0.08s WALL (      18 calls)
                                        0.00s GPU  (      18 calls)
     addusd:skk   :      0.00s CPU      0.00s WALL (      54 calls)
                                        0.00s GPU  (      54 calls)

     Called by *egterg:
     cdiaghg      :      0.19s CPU      0.22s WALL (     297 calls)
     cegterg:over :      0.03s CPU      0.03s WALL (     189 calls)
     cegterg:upda :      0.00s CPU      0.00s WALL (     189 calls)
     cegterg:last :      0.01s CPU      0.01s WALL (     174 calls)
     h_psi        :      0.82s CPU      0.86s WALL (     303 calls)
     s_psi        :      0.01s CPU      0.01s WALL (     303 calls)
     g_psi        :      0.00s CPU      0.00s WALL (     189 calls)

     Called by h_psi:
     h_psi:calbec :      0.03s CPU      0.03s WALL (     303 calls)
     vloc_psi     :      0.78s CPU      0.81s WALL (     303 calls)
     add_vuspsi   :      0.01s CPU      0.01s WALL (     303 calls)

     General routines
     calbec       :      0.04s CPU      0.05s WALL (     411 calls)
     fft          :      0.07s CPU      0.10s WALL (     469 calls)
     ffts         :      0.00s CPU      0.01s WALL (      74 calls)
     fftw         :      0.87s CPU      0.90s WALL (   17170 calls)
     interpolate  :      0.01s CPU      0.01s WALL (      38 calls)
 
     Parallel routines

     PAW routines
     PAW_pot      :      0.61s CPU      0.62s WALL (      19 calls)
     PAW_symme    :      0.00s CPU      0.00s WALL (      37 calls)
 
     PWSCF        :      2.63s CPU      2.98s WALL

 
   This run was terminated on:  12:52:22  23Jun2024            

=------------------------------------------------------------------------------=
   JOB DONE.
=------------------------------------------------------------------------------=
