
     Program PWSCF v.7.2 starts on 23Jun2024 at 13:40: 4 

     This program is part of the open-source Quantum ESPRESSO suite
     for quantum simulation of materials; please cite
         "P. Giannozzi et al., J. Phys.:Condens. Matter 21 395502 (2009);
         "P. Giannozzi et al., J. Phys.:Condens. Matter 29 465901 (2017);
         "P. Giannozzi et al., J. Chem. Phys. 152 154105 (2020);
          URL http://www.quantum-espresso.org", 
     in publications or presentations arising from this work. More details at
     http://www.quantum-espresso.org/quote

     Parallel version (MPI), running on    32 processors

     MPI processes distributed on     1 nodes
     211880 MiB available memory on the printing compute node when the environment starts
 
     Waiting for input...
     Reading input from standard input

     Current dimensions of program PWSCF are:
     Max number of different atomic species (ntypx) = 10
     Max number of k-points (npk) =  40000
     Max angular momentum in pseudopotentials (lmaxx) =  4
     Message from routine volume:
     axis vectors are left-handed
     file O.pbesol-n-kjpaw_psl.0.1.UPF: wavefunction(s)  2P renormalized
     Message from routine setup:
     using ibrav=0 with symmetry is DISCOURAGED, use correct ibrav instead
 
     K-points division:     npool     =       2
     R & G space division:  proc/nbgrp/npool/nimage =      16
     Subspace diagonalization in iterative solution of the eigenvalue problem:
     a serial algorithm will be used

 
     Parallelization info
     --------------------
     sticks:   dense  smooth     PW     G-vecs:    dense   smooth      PW
     Min         105      52     17                 1994      706     139
     Max         106      53     18                 1996      708     141
     Sum        1689     839    281                31923    11307    2241
 
     Using Slab Decomposition
 


     bravais-lattice index     =            0
     lattice parameter (alat)  =       8.0000  a.u.
     unit-cell volume          =     235.7543 (a.u.)^3
     number of atoms/cell      =            4
     number of atomic types    =            3
     number of electrons       =        46.00
     number of Kohn-Sham states=           28
     kinetic-energy cutoff     =      50.0000  Ry
     charge density cutoff     =     400.0000  Ry
     scf convergence threshold =      1.0E-10
     mixing beta               =       0.7000
     number of iterations used =            8  plain     mixing
     energy convergence thresh.=      1.0E-04
     force convergence thresh. =      1.0E-03
     press convergence thresh. =      5.0E-01
     Exchange-correlation= SLA  PW   PSX  PSC
                           (   1   4  10   8   0   0   0)
     nstep                     =           50

     Hubbard projectors: ortho-atomic
     Hubbard parameters of DFT+U (Dudarev formulation) in eV:
     U(Co1-3d) =  6.7553
     U(Co2-3d) =  6.7553

     Internal variables: lda_plus_u = T, lda_plus_u_kind = 0

     celldm(1)=   8.000000  celldm(2)=   0.000000  celldm(3)=   0.000000
     celldm(4)=   0.000000  celldm(5)=   0.000000  celldm(6)=   0.000000

     crystal axes: (cart. coord. in units of alat)
               a(1) = (   0.570726   0.570726   1.031099 )  
               a(2) = (   0.570726   1.031099   0.570726 )  
               a(3) = (   1.031099   0.570726   0.570726 )  

     reciprocal axes: (cart. coord. in units 2 pi/alat)
               b(1) = ( -0.570621 -0.570621  1.601531 )  
               b(2) = ( -0.570621  1.601531 -0.570621 )  
               b(3) = (  1.601531 -0.570621 -0.570621 )  


     PseudoPot. # 1 for Co read from file:
     ./co_pbesol_v1.2.uspp.F.UPF
     MD5 check sum: 3b4cd4e7cc7df4da9fdede0fd33e2193
     Pseudo is Ultrasoft + core correction, Zval = 17.0
     Generated by new atomic code, or converted to UPF format
     Using radial grid of  863 points,  6 beta functions with: 
                l(1) =   0
                l(2) =   0
                l(3) =   1
                l(4) =   1
                l(5) =   2
                l(6) =   2
     Q(r) pseudized with  8 coefficients,  rinner =    1.200   1.200   1.200
                                                       1.200   1.200

     PseudoPot. # 2 for Co read from file:
     ./co_pbesol_v1.2.uspp.F.UPF
     MD5 check sum: 3b4cd4e7cc7df4da9fdede0fd33e2193
     Pseudo is Ultrasoft + core correction, Zval = 17.0
     Generated by new atomic code, or converted to UPF format
     Using radial grid of  863 points,  6 beta functions with: 
                l(1) =   0
                l(2) =   0
                l(3) =   1
                l(4) =   1
                l(5) =   2
                l(6) =   2
     Q(r) pseudized with  8 coefficients,  rinner =    1.200   1.200   1.200
                                                       1.200   1.200

     PseudoPot. # 3 for O  read from file:
     ./O.pbesol-n-kjpaw_psl.0.1.UPF
     MD5 check sum: 126339daddaa87477ab44acfa0b5aa00
     Pseudo is Projector augmented-wave + core cor, Zval =  6.0
     Generated using "atomic" code by A. Dal Corso  v.6.0 svn rev. 13079
     Shape of augmentation charge: BESSEL
     Using radial grid of 1095 points,  4 beta functions with: 
                l(1) =   0
                l(2) =   0
                l(3) =   1
                l(4) =   1
     Q(r) pseudized with 0 coefficients 


     atomic species   valence    mass     pseudopotential
        Co1           17.00    58.93319     Co( 1.00)
        Co2           17.00    58.93319     Co( 1.00)
        O              6.00    15.99900     O ( 1.00)

     Starting magnetic structure 
     atomic species   magnetization
        Co1          0.500
        Co2         -0.500
        O            0.000

     12 Sym. Ops., with inversion, found


                                    s                        frac. trans.

      isym =  1     identity                                     

 cryst.   s( 1) = (     1          0          0      )
                  (     0          1          0      )
                  (     0          0          1      )

 cart.    s( 1) = (  1.0000000  0.0000000  0.0000000 )
                  (  0.0000000  1.0000000  0.0000000 )
                  (  0.0000000  0.0000000  1.0000000 )


      isym =  2     180 deg rotation - cart. axis [1,-1,0]       

 cryst.   s( 2) = (    -1          0          0      )
                  (     0          0         -1      )
                  (     0         -1          0      )

 cart.    s( 2) = ( -0.0000000 -1.0000000 -0.0000000 )
                  ( -1.0000000 -0.0000000 -0.0000000 )
                  ( -0.0000000 -0.0000000 -1.0000000 )


      isym =  3     180 deg rotation - cart. axis [-1,0,1]       

 cryst.   s( 3) = (     0          0         -1      )
                  (     0         -1          0      )
                  (    -1          0          0      )

 cart.    s( 3) = ( -0.0000000 -0.0000000 -1.0000000 )
                  ( -0.0000000 -1.0000000 -0.0000000 )
                  ( -1.0000000 -0.0000000 -0.0000000 )


      isym =  4     180 deg rotation - cart. axis [0,1,-1]       

 cryst.   s( 4) = (     0         -1          0      )
                  (    -1          0          0      )
                  (     0          0         -1      )

 cart.    s( 4) = ( -1.0000000 -0.0000000 -0.0000000 )
                  ( -0.0000000 -0.0000000 -1.0000000 )
                  ( -0.0000000 -1.0000000 -0.0000000 )


      isym =  5     120 deg rotation - cart. axis [-1,-1,-1]     

 cryst.   s( 5) = (     0          1          0      )
                  (     0          0          1      )
                  (     1          0          0      )

 cart.    s( 5) = (  0.0000000  1.0000000  0.0000000 )
                  (  0.0000000  0.0000000  1.0000000 )
                  (  1.0000000  0.0000000  0.0000000 )


      isym =  6     120 deg rotation - cart. axis [1,1,1]        

 cryst.   s( 6) = (     0          0          1      )
                  (     1          0          0      )
                  (     0          1          0      )

 cart.    s( 6) = (  0.0000000  0.0000000  1.0000000 )
                  (  1.0000000  0.0000000  0.0000000 )
                  (  0.0000000  1.0000000  0.0000000 )


      isym =  7     inversion                                    

 cryst.   s( 7) = (    -1          0          0      )
                  (     0         -1          0      )
                  (     0          0         -1      )

 cart.    s( 7) = ( -1.0000000 -0.0000000 -0.0000000 )
                  ( -0.0000000 -1.0000000 -0.0000000 )
                  ( -0.0000000 -0.0000000 -1.0000000 )


      isym =  8     inv. 180 deg rotation - cart. axis [1,-1,0]  

 cryst.   s( 8) = (     1          0          0      )
                  (     0          0          1      )
                  (     0          1          0      )

 cart.    s( 8) = (  0.0000000  1.0000000  0.0000000 )
                  (  1.0000000  0.0000000  0.0000000 )
                  (  0.0000000  0.0000000  1.0000000 )


      isym =  9     inv. 180 deg rotation - cart. axis [-1,0,1]  

 cryst.   s( 9) = (     0          0          1      )
                  (     0          1          0      )
                  (     1          0          0      )

 cart.    s( 9) = (  0.0000000  0.0000000  1.0000000 )
                  (  0.0000000  1.0000000  0.0000000 )
                  (  1.0000000  0.0000000  0.0000000 )


      isym = 10     inv. 180 deg rotation - cart. axis [0,1,-1]  

 cryst.   s(10) = (     0          1          0      )
                  (     1          0          0      )
                  (     0          0          1      )

 cart.    s(10) = (  1.0000000  0.0000000  0.0000000 )
                  (  0.0000000  0.0000000  1.0000000 )
                  (  0.0000000  1.0000000  0.0000000 )


      isym = 11     inv. 120 deg rotation - cart. axis [-1,-1,-1]

 cryst.   s(11) = (     0         -1          0      )
                  (     0          0         -1      )
                  (    -1          0          0      )

 cart.    s(11) = ( -0.0000000 -1.0000000 -0.0000000 )
                  ( -0.0000000 -0.0000000 -1.0000000 )
                  ( -1.0000000 -0.0000000 -0.0000000 )


      isym = 12     inv. 120 deg rotation - cart. axis [1,1,1]   

 cryst.   s(12) = (     0          0         -1      )
                  (    -1          0          0      )
                  (     0         -1          0      )

 cart.    s(12) = ( -0.0000000 -0.0000000 -1.0000000 )
                  ( -1.0000000 -0.0000000 -0.0000000 )
                  ( -0.0000000 -1.0000000 -0.0000000 )


   Cartesian axes

     site n.     atom                  positions (alat units)
         1           Co1 tau(   1) = (   0.0000000   0.0000000   0.0000000  )
         2           Co2 tau(   2) = (   1.0862757   1.0862757   1.0862757  )
         3           O   tau(   3) = (   0.5431378   0.5431378   0.5431378  )
         4           O   tau(   4) = (   1.6294135   1.6294135   1.6294135  )

   Crystallographic axes

     site n.     atom                  positions (cryst. coord.)
         1           Co1 tau(   1) = (  0.0000000  0.0000000  0.0000000  )
         2           Co2 tau(   2) = (  0.5000000  0.5000000  0.5000000  )
         3           O   tau(   3) = (  0.2500000  0.2500000  0.2500000  )
         4           O   tau(   4) = (  0.7500000  0.7500000  0.7500000  )

     number of k points=    32  Marzari-Vanderbilt smearing, width (Ry)=  0.0200
                       cart. coord. in units 2pi/alat
        k(    1) = (   0.0000000   0.0000000   0.0000000), wk =   0.0046296
        k(    2) = (   0.2669218  -0.0951035  -0.0951035), wk =   0.0277778
        k(    3) = (   0.5338435  -0.1902071  -0.1902071), wk =   0.0277778
        k(    4) = (  -0.8007653   0.2853106   0.2853106), wk =   0.0138889
        k(    5) = (   0.1718182   0.1718182  -0.1902071), wk =   0.0277778
        k(    6) = (   0.4387400   0.0767147  -0.2853106), wk =   0.0555556
        k(    7) = (  -0.8958688   0.5522323   0.1902071), wk =   0.0555556
        k(    8) = (  -0.6289471   0.4571288   0.0951035), wk =   0.0555556
        k(    9) = (  -0.3620253   0.3620253  -0.0000000), wk =   0.0277778
        k(   10) = (   0.3436365   0.3436365  -0.3804141), wk =   0.0277778
        k(   11) = (  -0.9909724   0.8191541   0.0951035), wk =   0.0555556
        k(   12) = (  -0.7240506   0.7240506   0.0000000), wk =   0.0277778
        k(   13) = (  -0.5154547  -0.5154547   0.5706212), wk =   0.0138889
        k(   14) = (   0.0767147   0.0767147   0.0767147), wk =   0.0092593
        k(   15) = (   0.3436365  -0.0183888  -0.0183888), wk =   0.0277778
        k(   16) = (  -0.9909724   0.4571288   0.4571288), wk =   0.0277778
        k(   17) = (  -0.7240506   0.3620253   0.3620253), wk =   0.0277778
        k(   18) = (  -0.4571288   0.2669218   0.2669218), wk =   0.0277778
        k(   19) = (   0.2485330   0.2485330  -0.1134923), wk =   0.0277778
        k(   20) = (  -1.0860759   0.7240506   0.3620253), wk =   0.0555556
        k(   21) = (  -0.8191541   0.6289471   0.2669218), wk =   0.0555556
        k(   22) = (  -0.5522323   0.5338435   0.1718182), wk =   0.0555556
        k(   23) = (  -0.6105583  -0.6105583   0.8375429), wk =   0.0277778
        k(   24) = (  -0.3436365  -0.7056618   0.7424394), wk =   0.0555556
        k(   25) = (  -0.0767147  -0.8007653   0.6473359), wk =   0.0277778
        k(   26) = (  -0.4387400  -0.4387400   0.6473359), wk =   0.0277778
        k(   27) = (   0.1534294   0.1534294   0.1534294), wk =   0.0092593
        k(   28) = (  -1.1811794   0.6289471   0.6289471), wk =   0.0277778
        k(   29) = (  -0.9142576   0.5338435   0.5338435), wk =   0.0277778
        k(   30) = (  -0.7056618  -0.7056618   1.1044647), wk =   0.0277778
        k(   31) = (  -0.4387400  -0.8007653   1.0093612), wk =   0.0277778
        k(   32) = (  -0.2301442  -0.2301442  -0.2301442), wk =   0.0046296

                       cryst. coord.
        k(    1) = (   0.0000000   0.0000000   0.0000000), wk =   0.0046296
        k(    2) = (   0.0000000   0.0000000   0.1666667), wk =   0.0277778
        k(    3) = (   0.0000000   0.0000000   0.3333333), wk =   0.0277778
        k(    4) = (  -0.0000000  -0.0000000  -0.5000000), wk =   0.0138889
        k(    5) = (   0.0000000   0.1666667   0.1666667), wk =   0.0277778
        k(    6) = (   0.0000000   0.1666667   0.3333333), wk =   0.0555556
        k(    7) = (   0.0000000   0.1666667  -0.5000000), wk =   0.0555556
        k(    8) = (   0.0000000   0.1666667  -0.3333333), wk =   0.0555556
        k(    9) = (  -0.0000000   0.1666667  -0.1666667), wk =   0.0277778
        k(   10) = (   0.0000000   0.3333333   0.3333333), wk =   0.0277778
        k(   11) = (   0.0000000   0.3333333  -0.5000000), wk =   0.0555556
        k(   12) = (   0.0000000   0.3333333  -0.3333333), wk =   0.0277778
        k(   13) = (  -0.0000000  -0.5000000  -0.5000000), wk =   0.0138889
        k(   14) = (   0.1666667   0.1666667   0.1666667), wk =   0.0092593
        k(   15) = (   0.1666667   0.1666667   0.3333333), wk =   0.0277778
        k(   16) = (   0.1666667   0.1666667  -0.5000000), wk =   0.0277778
        k(   17) = (   0.1666667   0.1666667  -0.3333333), wk =   0.0277778
        k(   18) = (   0.1666667   0.1666667  -0.1666667), wk =   0.0277778
        k(   19) = (   0.1666667   0.3333333   0.3333333), wk =   0.0277778
        k(   20) = (   0.1666667   0.3333333  -0.5000000), wk =   0.0555556
        k(   21) = (   0.1666667   0.3333333  -0.3333333), wk =   0.0555556
        k(   22) = (   0.1666667   0.3333333  -0.1666667), wk =   0.0555556
        k(   23) = (   0.1666667  -0.5000000  -0.5000000), wk =   0.0277778
        k(   24) = (   0.1666667  -0.5000000  -0.3333333), wk =   0.0555556
        k(   25) = (   0.1666667  -0.5000000  -0.1666667), wk =   0.0277778
        k(   26) = (   0.1666667  -0.3333333  -0.3333333), wk =   0.0277778
        k(   27) = (   0.3333333   0.3333333   0.3333333), wk =   0.0092593
        k(   28) = (   0.3333333   0.3333333  -0.5000000), wk =   0.0277778
        k(   29) = (   0.3333333   0.3333333  -0.3333333), wk =   0.0277778
        k(   30) = (   0.3333333  -0.5000000  -0.5000000), wk =   0.0277778
        k(   31) = (   0.3333333  -0.5000000  -0.3333333), wk =   0.0277778
        k(   32) = (  -0.5000000  -0.5000000  -0.5000000), wk =   0.0046296

     Dense  grid:    31923 G-vectors     FFT dimensions: (  72,  72,  72)

     Smooth grid:    11307 G-vectors     FFT dimensions: (  48,  48,  48)

     Dynamical RAM for                 wfc:       0.04 MB

     Dynamical RAM for     wfc (w. buffer):       1.24 MB

     Dynamical RAM for             U proj.:       0.01 MB

     Dynamical RAM for  U proj. (w. buff.):       0.44 MB

     Dynamical RAM for           str. fact:       0.09 MB

     Dynamical RAM for           local pot:       0.00 MB

     Dynamical RAM for          nlocal pot:       0.07 MB

     Dynamical RAM for                qrad:       9.63 MB

     Dynamical RAM for          rho,v,vnew:       1.37 MB

     Dynamical RAM for               rhoin:       0.46 MB

     Dynamical RAM for            rho*nmix:       0.97 MB

     Dynamical RAM for           G-vectors:       0.12 MB

     Dynamical RAM for          h,s,v(r/c):       0.14 MB

     Dynamical RAM for          <psi|beta>:       0.02 MB

     Dynamical RAM for                 psi:       0.08 MB

     Dynamical RAM for                hpsi:       0.08 MB

     Dynamical RAM for                spsi:       0.08 MB

     Dynamical RAM for      wfcinit/wfcrot:       0.12 MB

     Dynamical RAM for           addusdens:       2.91 MB

     Dynamical RAM for          addusforce:       2.94 MB

     Dynamical RAM for         addusstress:       3.10 MB

     Estimated static dynamical RAM per process >      14.73 MB

     Estimated max dynamical RAM per process >      18.80 MB

     Estimated total dynamical RAM >     586.03 MB

     Check: negative core charge=   -0.000026
     Generating pointlists ...
     new r_m :   0.2019 (alat units)  1.6154 (a.u.) for type    1
     new r_m :   0.2019 (alat units)  1.6154 (a.u.) for type    2
     new r_m :   0.2019 (alat units)  1.6154 (a.u.) for type    3

     Initial potential from superposition of free atoms

     starting charge      44.0000, renormalised to      46.0000

     HUBBARD ENERGY =    0.5958  (Ry)

     STARTING HUBBARD OCCUPATIONS:

     =================== HUBBARD OCCUPATIONS ===================
     ------------------------ ATOM    1 ------------------------
     Tr[ns(  1)] (up, down, total) =   5.00000  2.00000  7.00000
     Atomic magnetic moment for atom   1 =   3.00000
     SPIN  1
     eigenvalues:
       1.000  1.000  1.000  1.000  1.000
     eigenvectors (columns):
       1.000  0.000  0.000  0.000  0.000
       0.000  1.000  0.000  0.000  0.000
       0.000  0.000  1.000  0.000  0.000
       0.000  0.000  0.000  1.000  0.000
       0.000  0.000  0.000  0.000  1.000
     occupation matrix ns (before diag.):
       1.000  0.000  0.000  0.000  0.000
       0.000  1.000  0.000  0.000  0.000
       0.000  0.000  1.000  0.000  0.000
       0.000  0.000  0.000  1.000  0.000
       0.000  0.000  0.000  0.000  1.000
     SPIN  2
     eigenvalues:
       0.400  0.400  0.400  0.400  0.400
     eigenvectors (columns):
       1.000  0.000  0.000  0.000  0.000
       0.000  1.000  0.000  0.000  0.000
       0.000  0.000  1.000  0.000  0.000
       0.000  0.000  0.000  1.000  0.000
       0.000  0.000  0.000  0.000  1.000
     occupation matrix ns (before diag.):
       0.400  0.000  0.000  0.000  0.000
       0.000  0.400  0.000  0.000  0.000
       0.000  0.000  0.400  0.000  0.000
       0.000  0.000  0.000  0.400  0.000
       0.000  0.000  0.000  0.000  0.400
     ------------------------ ATOM    2 ------------------------
     Tr[ns(  2)] (up, down, total) =   2.00000  5.00000  7.00000
     Atomic magnetic moment for atom   2 =  -3.00000
     SPIN  1
     eigenvalues:
       0.400  0.400  0.400  0.400  0.400
     eigenvectors (columns):
       1.000  0.000  0.000  0.000  0.000
       0.000  1.000  0.000  0.000  0.000
       0.000  0.000  1.000  0.000  0.000
       0.000  0.000  0.000  1.000  0.000
       0.000  0.000  0.000  0.000  1.000
     occupation matrix ns (before diag.):
       0.400  0.000  0.000  0.000  0.000
       0.000  0.400  0.000  0.000  0.000
       0.000  0.000  0.400  0.000  0.000
       0.000  0.000  0.000  0.400  0.000
       0.000  0.000  0.000  0.000  0.400
     SPIN  2
     eigenvalues:
       1.000  1.000  1.000  1.000  1.000
     eigenvectors (columns):
       1.000  0.000  0.000  0.000  0.000
       0.000  1.000  0.000  0.000  0.000
       0.000  0.000  1.000  0.000  0.000
       0.000  0.000  0.000  1.000  0.000
       0.000  0.000  0.000  0.000  1.000
     occupation matrix ns (before diag.):
       1.000  0.000  0.000  0.000  0.000
       0.000  1.000  0.000  0.000  0.000
       0.000  0.000  1.000  0.000  0.000
       0.000  0.000  0.000  1.000  0.000
       0.000  0.000  0.000  0.000  1.000

     Number of occupied Hubbard levels =   14.0000

     Atomic wfc used for Hubbard projectors are orthogonalized

     Starting wfcs are   34 randomized atomic wfcs
     Checking if some PAW data can be deallocated... 
       PAW data deallocated on   16 nodes for type:  3

     total cpu time spent up to now is        0.9 secs

     Self-consistent Calculation

     iteration #  1     ecut=    50.00 Ry     beta= 0.70
     Davidson diagonalization with overlap

---- Real-time Memory Report at c_bands before calling an iterative solver
           125 MiB given to the printing process from OS
             0 MiB allocation reported by mallinfo(arena+hblkhd)
        210722 MiB available memory on the node where the printing process lives
------------------
     ethr =  1.00E-02,  avg # of iterations =  3.0

     =================== HUBBARD OCCUPATIONS ===================
     ------------------------ ATOM    1 ------------------------
     Tr[ns(  1)] (up, down, total) =   4.86272  0.59977  5.46249
     Atomic magnetic moment for atom   1 =   4.26296
     SPIN  1
     eigenvalues:
       0.961  0.961  0.968  0.986  0.986
     eigenvectors (columns):
       0.124 -0.026 -0.000 -0.673 -0.729
       0.538  0.606 -0.577 -0.031  0.099
       0.256 -0.768 -0.577  0.101 -0.023
       0.026  0.124  0.000  0.729 -0.673
       0.793 -0.163  0.577  0.070  0.076
     occupation matrix ns (before diag.):
       0.985 -0.001 -0.001  0.000 -0.003
      -0.001  0.964  0.002 -0.002 -0.002
      -0.001  0.002  0.964  0.002 -0.002
       0.000 -0.002  0.002  0.985 -0.000
      -0.003 -0.002 -0.002 -0.000  0.964
     SPIN  2
     eigenvalues:
       0.051  0.051  0.164  0.164  0.169
     eigenvectors (columns):
       0.690 -0.707 -0.154 -0.035 -0.000
       0.035  0.124 -0.546  0.593 -0.577
      -0.125 -0.032 -0.241 -0.770 -0.577
      -0.707 -0.690 -0.035  0.154  0.000
      -0.090  0.092 -0.787 -0.176  0.577
     occupation matrix ns (before diag.):
       0.054  0.007  0.007  0.000  0.014
       0.007  0.164  0.002  0.012 -0.002
       0.007  0.002  0.164 -0.012 -0.002
       0.000  0.012 -0.012  0.054 -0.000
       0.014 -0.002 -0.002 -0.000  0.164
     ------------------------ ATOM    2 ------------------------
     Tr[ns(  2)] (up, down, total) =   0.59943  4.86273  5.46217
     Atomic magnetic moment for atom   2 =  -4.26330
     SPIN  1
     eigenvalues:
       0.051  0.051  0.164  0.164  0.169
     eigenvectors (columns):
      -0.713 -0.683 -0.154 -0.033 -0.000
      -0.031  0.125 -0.541  0.598 -0.577
       0.123 -0.036 -0.247 -0.768 -0.577
       0.683 -0.713 -0.033  0.154  0.000
       0.093  0.089 -0.788 -0.170  0.577
     occupation matrix ns (before diag.):
       0.054  0.007  0.007  0.000  0.014
       0.007  0.164  0.002  0.012 -0.002
       0.007  0.002  0.164 -0.012 -0.002
       0.000  0.012 -0.012  0.054 -0.000
       0.014 -0.002 -0.002 -0.000  0.164
     SPIN  2
     eigenvalues:
       0.961  0.961  0.968  0.986  0.986
     eigenvectors (columns):
       0.125 -0.027 -0.000 -0.676 -0.726
       0.542  0.601 -0.577 -0.030  0.099
       0.250 -0.770 -0.577  0.101 -0.023
       0.027  0.125  0.000  0.726 -0.676
       0.792 -0.169  0.577  0.071  0.076
     occupation matrix ns (before diag.):
       0.985 -0.001 -0.001  0.000 -0.003
      -0.001  0.964  0.002 -0.002 -0.002
      -0.001  0.002  0.964  0.002 -0.002
       0.000 -0.002  0.002  0.985 -0.000
      -0.003 -0.002 -0.002 -0.000  0.964

     Number of occupied Hubbard levels =   10.9247

     HUBBARD ENERGY =    0.3201  (Ry)

     total cpu time spent up to now is        1.6 secs

     total energy              =    -671.11187626 Ry
     estimated scf accuracy    <      12.35019237 Ry

     total magnetization       =    -0.00 Bohr mag/cell
     absolute magnetization    =     8.92 Bohr mag/cell

     iteration #  2     ecut=    50.00 Ry     beta= 0.70
     Davidson diagonalization with overlap

---- Real-time Memory Report at c_bands before calling an iterative solver
           132 MiB given to the printing process from OS
             0 MiB allocation reported by mallinfo(arena+hblkhd)
        210603 MiB available memory on the node where the printing process lives
------------------
     ethr =  1.00E-02,  avg # of iterations =  3.4

     =================== HUBBARD OCCUPATIONS ===================
     ------------------------ ATOM    1 ------------------------
     Tr[ns(  1)] (up, down, total) =   4.87168  4.88459  9.75628
     Atomic magnetic moment for atom   1 =  -0.01291
     SPIN  1
     eigenvalues:
       0.973  0.973  0.973  0.976  0.976
     eigenvectors (columns):
      -0.000 -0.260  0.069  0.746 -0.609
      -0.577  0.205 -0.759 -0.035 -0.217
      -0.577  0.555  0.557  0.205  0.078
       0.000  0.069  0.260 -0.609 -0.746
       0.577  0.760 -0.202  0.170 -0.139
     occupation matrix ns (before diag.):
       0.976  0.000  0.000  0.000  0.001
       0.000  0.973 -0.000  0.001  0.000
       0.000 -0.000  0.973 -0.001  0.000
       0.000  0.001 -0.001  0.976 -0.000
       0.001  0.000  0.000 -0.000  0.973
     SPIN  2
     eigenvalues:
       0.975  0.975  0.977  0.979  0.979
     eigenvectors (columns):
      -0.583 -0.602 -0.000 -0.524 -0.151
      -0.122  0.428  0.577 -0.493  0.474
       0.432 -0.108  0.577 -0.164 -0.664
       0.602 -0.583  0.000 -0.151  0.524
       0.310  0.320 -0.577 -0.658 -0.190
     occupation matrix ns (before diag.):
       0.976  0.001  0.001  0.000  0.001
       0.001  0.977 -0.000  0.001  0.000
       0.001 -0.000  0.977 -0.001  0.000
       0.000  0.001 -0.001  0.976 -0.000
       0.001  0.000  0.000 -0.000  0.977
     ------------------------ ATOM    2 ------------------------
     Tr[ns(  2)] (up, down, total) =   4.88467  4.87171  9.75638
     Atomic magnetic moment for atom   2 =   0.01297
     SPIN  1
     eigenvalues:
       0.975  0.975  0.977  0.979  0.979
     eigenvectors (columns):
      -0.576 -0.605 -0.000 -0.533 -0.133
      -0.127  0.431  0.577 -0.474  0.491
       0.436 -0.105  0.577 -0.188 -0.656
       0.605 -0.576  0.000 -0.133  0.533
       0.310  0.325 -0.577 -0.662 -0.165
     occupation matrix ns (before diag.):
       0.976  0.001  0.001  0.000  0.001
       0.001  0.977 -0.000  0.001  0.000
       0.001 -0.000  0.977 -0.001  0.000
       0.000  0.001 -0.001  0.976 -0.000
       0.001  0.000  0.000 -0.000  0.977
     SPIN  2
     eigenvalues:
       0.973  0.973  0.973  0.976  0.976
     eigenvectors (columns):
       0.000 -0.259  0.072 -0.786 -0.557
       0.577  0.197 -0.761  0.020 -0.218
       0.577  0.561  0.552 -0.199  0.091
      -0.000  0.072  0.259  0.557 -0.786
      -0.577  0.758 -0.210 -0.179 -0.127
     occupation matrix ns (before diag.):
       0.976  0.000  0.000  0.000  0.001
       0.000  0.973 -0.000  0.001  0.000
       0.000 -0.000  0.973 -0.001  0.000
       0.000  0.001 -0.001  0.976 -0.000
       0.001  0.000  0.000 -0.000  0.973

     Number of occupied Hubbard levels =   19.5127

     HUBBARD ENERGY =    0.5783  (Ry)

     total cpu time spent up to now is        2.4 secs

     total energy              =    -671.99496487 Ry
     estimated scf accuracy    <      60.44069325 Ry

     total magnetization       =    -0.00 Bohr mag/cell
     absolute magnetization    =     0.58 Bohr mag/cell

     iteration #  3     ecut=    50.00 Ry     beta= 0.70
     Davidson diagonalization with overlap

---- Real-time Memory Report at c_bands before calling an iterative solver
           133 MiB given to the printing process from OS
             0 MiB allocation reported by mallinfo(arena+hblkhd)
        210599 MiB available memory on the node where the printing process lives
------------------
     ethr =  1.00E-02,  avg # of iterations =  2.9

     =================== HUBBARD OCCUPATIONS ===================
     ------------------------ ATOM    1 ------------------------
     Tr[ns(  1)] (up, down, total) =   4.97890  2.22754  7.20644
     Atomic magnetic moment for atom   1 =   2.75137
     SPIN  1
     eigenvalues:
       0.995  0.995  0.996  0.997  0.997
     eigenvectors (columns):
      -0.802 -0.552  0.000  0.226 -0.039
       0.015 -0.187  0.577 -0.275  0.745
      -0.169  0.081  0.577 -0.508 -0.611
       0.552 -0.802 -0.000 -0.039 -0.226
      -0.154 -0.106 -0.577 -0.783  0.134
     occupation matrix ns (before diag.):
       0.995 -0.000 -0.000  0.000 -0.000
      -0.000  0.996  0.000 -0.000 -0.000
      -0.000  0.000  0.996  0.000 -0.000
       0.000 -0.000  0.000  0.995 -0.000
      -0.000 -0.000 -0.000 -0.000  0.996
     SPIN  2
     eigenvalues:
       0.135  0.135  0.645  0.656  0.656
     eigenvectors (columns):
      -0.614 -0.784 -0.000  0.092  0.015
      -0.028  0.070  0.577  0.517 -0.627
       0.075 -0.011  0.577  0.285  0.762
       0.784 -0.614  0.000  0.015 -0.092
       0.047  0.060 -0.577  0.802  0.134
     occupation matrix ns (before diag.):
       0.140  0.020  0.020  0.000  0.039
       0.020  0.649 -0.002  0.034  0.002
       0.020 -0.002  0.649 -0.034  0.002
       0.000  0.034 -0.034  0.140 -0.000
       0.039  0.002  0.002 -0.000  0.649
     ------------------------ ATOM    2 ------------------------
     Tr[ns(  2)] (up, down, total) =   2.22710  4.97887  7.20597
     Atomic magnetic moment for atom   2 =  -2.75177
     SPIN  1
     eigenvalues:
       0.135  0.135  0.644  0.656  0.656
     eigenvectors (columns):
      -0.686 -0.722 -0.000  0.091  0.016
      -0.021  0.073  0.577  0.522 -0.624
       0.074 -0.018  0.577  0.279  0.764
       0.722 -0.686  0.000  0.016 -0.091
       0.052  0.055 -0.577  0.801  0.140
     occupation matrix ns (before diag.):
       0.140  0.020  0.020  0.000  0.039
       0.020  0.649 -0.003  0.034  0.003
       0.020 -0.003  0.649 -0.034  0.003
       0.000  0.034 -0.034  0.140 -0.000
       0.039  0.003  0.003 -0.000  0.649
     SPIN  2
     eigenvalues:
       0.995  0.995  0.996  0.997  0.997
     eigenvectors (columns):
      -0.747 -0.624  0.000  0.228 -0.031
       0.032 -0.185  0.577 -0.300  0.736
      -0.177  0.065  0.577 -0.487 -0.628
       0.624 -0.747 -0.000 -0.031 -0.228
      -0.144 -0.121 -0.577 -0.787  0.108
     occupation matrix ns (before diag.):
       0.995 -0.000 -0.000  0.000 -0.000
      -0.000  0.996  0.000 -0.000 -0.000
      -0.000  0.000  0.996  0.000 -0.000
       0.000 -0.000  0.000  0.995 -0.000
      -0.000 -0.000 -0.000 -0.000  0.996

     Number of occupied Hubbard levels =   14.4124

     HUBBARD ENERGY =    0.5283  (Ry)

     total cpu time spent up to now is        3.2 secs

     total energy              =    -678.18590493 Ry
     estimated scf accuracy    <       0.42989264 Ry

     total magnetization       =    -0.00 Bohr mag/cell
     absolute magnetization    =     5.81 Bohr mag/cell

     iteration #  4     ecut=    50.00 Ry     beta= 0.70
     Davidson diagonalization with overlap

---- Real-time Memory Report at c_bands before calling an iterative solver
           133 MiB given to the printing process from OS
             0 MiB allocation reported by mallinfo(arena+hblkhd)
        210601 MiB available memory on the node where the printing process lives
------------------
     ethr =  9.35E-04,  avg # of iterations =  2.3

     =================== HUBBARD OCCUPATIONS ===================
     ------------------------ ATOM    1 ------------------------
     Tr[ns(  1)] (up, down, total) =   4.96787  2.34160  7.30947
     Atomic magnetic moment for atom   1 =   2.62627
     SPIN  1
     eigenvalues:
       0.992  0.992  0.995  0.995  0.995
     eigenvectors (columns):
       0.674  0.732  0.000  0.104  0.001
      -0.025  0.081  0.577 -0.412  0.700
       0.083 -0.019  0.577 -0.400 -0.707
      -0.732  0.674 -0.000  0.001 -0.104
       0.058  0.063 -0.577 -0.812 -0.007
     occupation matrix ns (before diag.):
       0.992 -0.000 -0.000  0.000 -0.000
      -0.000  0.995 -0.000 -0.000  0.000
      -0.000 -0.000  0.995  0.000  0.000
       0.000 -0.000  0.000  0.992 -0.000
      -0.000  0.000  0.000 -0.000  0.995
     SPIN  2
     eigenvalues:
       0.151  0.151  0.613  0.713  0.713
     eigenvectors (columns):
       0.699  0.712  0.000  0.072  0.012
       0.016 -0.058 -0.577  0.520 -0.627
      -0.058  0.015 -0.577  0.283  0.763
      -0.712  0.699 -0.000  0.012 -0.072
      -0.042 -0.043  0.577  0.803  0.136
     occupation matrix ns (before diag.):
       0.154  0.017  0.017  0.000  0.034
       0.017  0.678 -0.032  0.029  0.032
       0.017 -0.032  0.678 -0.029  0.032
       0.000  0.029 -0.029  0.154 -0.000
       0.034  0.032  0.032 -0.000  0.678
     ------------------------ ATOM    2 ------------------------
     Tr[ns(  2)] (up, down, total) =   2.36118  4.96788  7.32906
     Atomic magnetic moment for atom   2 =  -2.60670
     SPIN  1
     eigenvalues:
       0.152  0.152  0.616  0.721  0.721
     eigenvectors (columns):
      -0.609  0.790  0.000  0.073  0.014
      -0.023 -0.056 -0.577  0.529 -0.619
       0.060  0.008 -0.577  0.271  0.768
       0.790  0.609 -0.000  0.014 -0.073
       0.037 -0.048  0.577  0.800  0.149
     occupation matrix ns (before diag.):
       0.155  0.017  0.017  0.000  0.034
       0.017  0.684 -0.034  0.030  0.034
       0.017 -0.034  0.684 -0.030  0.034
       0.000  0.030 -0.030  0.155 -0.000
       0.034  0.034  0.034 -0.000  0.684
     SPIN  2
     eigenvalues:
       0.992  0.992  0.995  0.995  0.995
     eigenvectors (columns):
       0.703  0.703  0.000  0.107  0.001
      -0.023  0.084  0.577 -0.411  0.700
       0.084 -0.023  0.577 -0.401 -0.706
      -0.703  0.703 -0.000  0.001 -0.107
       0.062  0.062 -0.577 -0.812 -0.006
     occupation matrix ns (before diag.):
       0.992 -0.000 -0.000  0.000 -0.000
      -0.000  0.995 -0.000 -0.000  0.000
      -0.000 -0.000  0.995  0.000  0.000
       0.000 -0.000  0.000  0.992 -0.000
      -0.000  0.000  0.000 -0.000  0.995

     Number of occupied Hubbard levels =   14.6385

     HUBBARD ENERGY =    0.4506  (Ry)

     total cpu time spent up to now is        3.8 secs

     total energy              =    -678.25645161 Ry
     estimated scf accuracy    <       0.12317540 Ry

     total magnetization       =     0.02 Bohr mag/cell
     absolute magnetization    =     5.52 Bohr mag/cell

     iteration #  5     ecut=    50.00 Ry     beta= 0.70
     Davidson diagonalization with overlap

---- Real-time Memory Report at c_bands before calling an iterative solver
           133 MiB given to the printing process from OS
             0 MiB allocation reported by mallinfo(arena+hblkhd)
        210601 MiB available memory on the node where the printing process lives
------------------
     ethr =  2.68E-04,  avg # of iterations =  2.2

     =================== HUBBARD OCCUPATIONS ===================
     ------------------------ ATOM    1 ------------------------
     Tr[ns(  1)] (up, down, total) =   4.96291  2.54192  7.50483
     Atomic magnetic moment for atom   1 =   2.42099
     SPIN  1
     eigenvalues:
       0.990  0.990  0.994  0.994  0.994
     eigenvectors (columns):
       0.663 -0.748  0.000 -0.032  0.002
      -0.008 -0.025 -0.577  0.460  0.674
       0.026  0.005 -0.577  0.354 -0.736
      -0.748 -0.663 -0.000 -0.002 -0.032
       0.018 -0.020  0.577  0.814 -0.062
     occupation matrix ns (before diag.):
       0.990 -0.000 -0.000  0.000 -0.000
      -0.000  0.994 -0.000 -0.000  0.000
      -0.000 -0.000  0.994  0.000  0.000
       0.000 -0.000  0.000  0.990 -0.000
      -0.000  0.000  0.000 -0.000  0.994
     SPIN  2
     eigenvalues:
       0.130  0.130  0.512  0.885  0.885
     eigenvectors (columns):
      -0.657  0.751  0.000  0.067  0.011
      -0.018 -0.052 -0.577  0.514 -0.632
       0.054  0.011 -0.577  0.290  0.761
       0.751  0.657 -0.000  0.011 -0.067
       0.036 -0.041  0.577  0.804  0.130
     occupation matrix ns (before diag.):
       0.133  0.021  0.021  0.000  0.041
       0.021  0.758 -0.123  0.036  0.123
       0.021 -0.123  0.758 -0.036  0.123
       0.000  0.036 -0.036  0.133 -0.000
       0.041  0.123  0.123 -0.000  0.758
     ------------------------ ATOM    2 ------------------------
     Tr[ns(  2)] (up, down, total) =   2.15685  4.96217  7.11902
     Atomic magnetic moment for atom   2 =  -2.80532
     SPIN  1
     eigenvalues:
       0.120  0.120  0.425  0.745  0.745
     eigenvectors (columns):
      -0.584  0.810  0.000  0.054  0.008
      -0.018 -0.040 -0.577  0.510 -0.636
       0.044  0.004 -0.577  0.296  0.760
       0.810  0.584 -0.000  0.008 -0.054
       0.026 -0.036  0.577  0.806  0.123
     occupation matrix ns (before diag.):
       0.122  0.014  0.014  0.000  0.028
       0.014  0.638 -0.106  0.024  0.106
       0.014 -0.106  0.638 -0.024  0.106
       0.000  0.024 -0.024  0.122 -0.000
       0.028  0.106  0.106 -0.000  0.638
     SPIN  2
     eigenvalues:
       0.990  0.990  0.994  0.994  0.994
     eigenvectors (columns):
       0.686  0.726  0.000  0.049  0.008
       0.012 -0.039 -0.577  0.519 -0.629
      -0.039  0.009 -0.577  0.285  0.764
      -0.726  0.686 -0.000  0.008 -0.049
      -0.028 -0.029  0.577  0.804  0.135
     occupation matrix ns (before diag.):
       0.990  0.000  0.000  0.000  0.000
       0.000  0.994 -0.000  0.000  0.000
       0.000 -0.000  0.994 -0.000  0.000
       0.000  0.000 -0.000  0.990 -0.000
       0.000  0.000  0.000 -0.000  0.994

     Number of occupied Hubbard levels =   14.6239

     HUBBARD ENERGY =    0.4393  (Ry)

     total cpu time spent up to now is        4.4 secs

     total energy              =    -678.27023644 Ry
     estimated scf accuracy    <       0.13108264 Ry

     total magnetization       =    -0.43 Bohr mag/cell
     absolute magnetization    =     5.47 Bohr mag/cell

     iteration #  6     ecut=    50.00 Ry     beta= 0.70
     Davidson diagonalization with overlap

---- Real-time Memory Report at c_bands before calling an iterative solver
           133 MiB given to the printing process from OS
             0 MiB allocation reported by mallinfo(arena+hblkhd)
        210599 MiB available memory on the node where the printing process lives
------------------
     ethr =  2.68E-04,  avg # of iterations =  2.1

     =================== HUBBARD OCCUPATIONS ===================
     ------------------------ ATOM    1 ------------------------
     Tr[ns(  1)] (up, down, total) =   4.95714  1.61762  6.57475
     Atomic magnetic moment for atom   1 =   3.33952
     SPIN  1
     eigenvalues:
       0.990  0.990  0.992  0.993  0.993
     eigenvectors (columns):
      -0.735 -0.655  0.000  0.173 -0.017
       0.029 -0.139  0.577 -0.334  0.731
      -0.135  0.045  0.577 -0.466 -0.655
       0.655 -0.735 -0.000 -0.017 -0.173
      -0.106 -0.094 -0.577 -0.800  0.077
     occupation matrix ns (before diag.):
       0.990 -0.000 -0.000  0.000 -0.000
      -0.000  0.993 -0.000 -0.000  0.000
      -0.000 -0.000  0.993  0.000  0.000
       0.000 -0.000  0.000  0.990 -0.000
      -0.000  0.000  0.000 -0.000  0.993
     SPIN  2
     eigenvalues:
       0.104  0.104  0.221  0.594  0.594
     eigenvectors (columns):
      -0.688  0.725  0.000  0.043  0.006
      -0.010 -0.034 -0.577  0.504 -0.641
       0.034  0.008 -0.577  0.303  0.757
       0.725  0.688 -0.000  0.006 -0.043
       0.024 -0.026  0.577  0.807  0.116
     occupation matrix ns (before diag.):
       0.105  0.009  0.009  0.000  0.017
       0.009  0.469 -0.124  0.015  0.124
       0.009 -0.124  0.469 -0.015  0.124
       0.000  0.015 -0.015  0.105 -0.000
       0.017  0.124  0.124 -0.000  0.469
     ------------------------ ATOM    2 ------------------------
     Tr[ns(  2)] (up, down, total) =   3.05138  4.96762  8.01900
     Atomic magnetic moment for atom   2 =  -1.91625
     SPIN  1
     eigenvalues:
       0.153  0.153  0.799  0.974  0.974
     eigenvectors (columns):
      -0.631  0.773  0.000  0.066  0.010
      -0.019 -0.051 -0.577  0.512 -0.634
       0.054  0.009 -0.577  0.293  0.760
       0.773  0.631 -0.000  0.010 -0.066
       0.034 -0.042  0.577  0.805  0.126
     occupation matrix ns (before diag.):
       0.156  0.022  0.022  0.000  0.045
       0.022  0.913 -0.057  0.039  0.057
       0.022 -0.057  0.913 -0.039  0.057
       0.000  0.039 -0.039  0.156 -0.000
       0.045  0.057  0.057 -0.000  0.913
     SPIN  2
     eigenvalues:
       0.992  0.992  0.994  0.995  0.995
     eigenvectors (columns):
      -0.757 -0.601 -0.000  0.252 -0.056
       0.031 -0.209  0.577 -0.237  0.752
      -0.196  0.078  0.577 -0.533 -0.581
       0.601 -0.757  0.000 -0.056 -0.252
      -0.165 -0.131 -0.577 -0.770  0.171
     occupation matrix ns (before diag.):
       0.992 -0.000 -0.000  0.000 -0.001
      -0.000  0.995 -0.000 -0.001  0.000
      -0.000 -0.000  0.995  0.001  0.000
       0.000 -0.001  0.001  0.992 -0.000
      -0.001  0.000  0.000 -0.000  0.995

     Number of occupied Hubbard levels =   14.5938

     HUBBARD ENERGY =    0.4269  (Ry)

     total cpu time spent up to now is        5.0 secs

     total energy              =    -678.24821765 Ry
     estimated scf accuracy    <       1.21803434 Ry

     total magnetization       =     1.52 Bohr mag/cell
     absolute magnetization    =     5.52 Bohr mag/cell

     iteration #  7     ecut=    50.00 Ry     beta= 0.70
     Davidson diagonalization with overlap

---- Real-time Memory Report at c_bands before calling an iterative solver
           134 MiB given to the printing process from OS
             0 MiB allocation reported by mallinfo(arena+hblkhd)
        210601 MiB available memory on the node where the printing process lives
------------------
     ethr =  2.68E-04,  avg # of iterations =  1.7

     =================== HUBBARD OCCUPATIONS ===================
     ------------------------ ATOM    1 ------------------------
     Tr[ns(  1)] (up, down, total) =   4.95976  2.39622  7.35598
     Atomic magnetic moment for atom   1 =   2.56354
     SPIN  1
     eigenvalues:
       0.990  0.990  0.993  0.994  0.994
     eigenvectors (columns):
       0.764  0.635  0.000  0.114  0.000
      -0.016  0.091 -0.577 -0.403 -0.704
       0.087 -0.032 -0.577 -0.408  0.701
      -0.635  0.764 -0.000 -0.000  0.114
       0.071  0.059  0.577 -0.811 -0.003
     occupation matrix ns (before diag.):
       0.990 -0.000 -0.000  0.000 -0.000
      -0.000  0.993 -0.000 -0.000  0.000
      -0.000 -0.000  0.993  0.000  0.000
       0.000 -0.000  0.000  0.990 -0.000
      -0.000  0.000  0.000 -0.000  0.993
     SPIN  2
     eigenvalues:
       0.126  0.126  0.250  0.947  0.947
     eigenvectors (columns):
      -0.755  0.653  0.000  0.056  0.009
      -0.009 -0.046 -0.577  0.511 -0.635
       0.044  0.015 -0.577  0.294  0.760
       0.653  0.755 -0.000  0.009 -0.056
       0.035 -0.030  0.577  0.805  0.125
     occupation matrix ns (before diag.):
       0.129  0.019  0.019  0.000  0.038
       0.019  0.713 -0.231  0.033  0.231
       0.019 -0.231  0.713 -0.033  0.231
       0.000  0.033 -0.033  0.129 -0.000
       0.038  0.231  0.231 -0.000  0.713
     ------------------------ ATOM    2 ------------------------
     Tr[ns(  2)] (up, down, total) =   2.29008  4.96218  7.25226
     Atomic magnetic moment for atom   2 =  -2.67210
     SPIN  1
     eigenvalues:
       0.122  0.122  0.272  0.887  0.887
     eigenvectors (columns):
      -0.610  0.791  0.000  0.049  0.008
      -0.015 -0.037 -0.577  0.522 -0.627
       0.040  0.005 -0.577  0.282  0.765
       0.791  0.610 -0.000  0.008 -0.049
       0.025 -0.032  0.577  0.804  0.139
     occupation matrix ns (before diag.):
       0.124  0.015  0.015  0.000  0.031
       0.015  0.681 -0.204  0.027  0.204
       0.015 -0.204  0.681 -0.027  0.204
       0.000  0.027 -0.027  0.124 -0.000
       0.031  0.204  0.204 -0.000  0.681
     SPIN  2
     eigenvalues:
       0.991  0.991  0.993  0.994  0.994
     eigenvectors (columns):
      -0.743 -0.645  0.000 -0.178 -0.027
       0.028 -0.144 -0.577  0.292  0.748
      -0.139  0.048 -0.577  0.502 -0.627
       0.645 -0.743 -0.000  0.027 -0.178
      -0.111 -0.096  0.577  0.794  0.122
     occupation matrix ns (before diag.):
       0.991 -0.000 -0.000  0.000 -0.000
      -0.000  0.994 -0.000 -0.000  0.000
      -0.000 -0.000  0.994  0.000  0.000
       0.000 -0.000  0.000  0.991 -0.000
      -0.000  0.000  0.000 -0.000  0.994

     Number of occupied Hubbard levels =   14.6082

     HUBBARD ENERGY =    0.4342  (Ry)

     total cpu time spent up to now is        5.5 secs

     total energy              =    -678.22273475 Ry
     estimated scf accuracy    <       0.10079654 Ry

     total magnetization       =    -0.13 Bohr mag/cell
     absolute magnetization    =     5.45 Bohr mag/cell

     iteration #  8     ecut=    50.00 Ry     beta= 0.70
     Davidson diagonalization with overlap

---- Real-time Memory Report at c_bands before calling an iterative solver
           134 MiB given to the printing process from OS
             0 MiB allocation reported by mallinfo(arena+hblkhd)
        210602 MiB available memory on the node where the printing process lives
------------------
     ethr =  2.19E-04,  avg # of iterations =  1.0

     =================== HUBBARD OCCUPATIONS ===================
     ------------------------ ATOM    1 ------------------------
     Tr[ns(  1)] (up, down, total) =   4.95530  2.30394  7.25923
     Atomic magnetic moment for atom   1 =   2.65136
     SPIN  1
     eigenvalues:
       0.988  0.988  0.993  0.993  0.993
     eigenvectors (columns):
       0.708 -0.706  0.000  0.017  0.002
       0.004  0.013 -0.577  0.493 -0.651
      -0.013 -0.004 -0.577  0.317  0.752
      -0.706 -0.708 -0.000  0.002 -0.017
      -0.010  0.010  0.577  0.810  0.102
     occupation matrix ns (before diag.):
       0.988  0.000  0.000  0.000  0.000
       0.000  0.993 -0.000  0.000  0.000
       0.000 -0.000  0.993 -0.000  0.000
       0.000  0.000 -0.000  0.988 -0.000
       0.000  0.000  0.000 -0.000  0.993
     SPIN  2
     eigenvalues:
       0.122  0.122  0.686  0.686  0.687
     eigenvectors (columns):
       0.789  0.612 -0.058 -0.009  0.000
       0.007 -0.048 -0.513  0.633  0.577
      -0.045  0.018 -0.292 -0.761  0.577
      -0.612  0.789 -0.009  0.058 -0.000
      -0.038 -0.030 -0.805 -0.128 -0.577
     occupation matrix ns (before diag.):
       0.124  0.014  0.014  0.000  0.027
       0.014  0.685  0.001  0.024 -0.001
       0.014  0.001  0.685 -0.024 -0.001
       0.000  0.024 -0.024  0.124 -0.000
       0.027 -0.001 -0.001 -0.000  0.685
     ------------------------ ATOM    2 ------------------------
     Tr[ns(  2)] (up, down, total) =   2.44898  4.95581  7.40479
     Atomic magnetic moment for atom   2 =  -2.50683
     SPIN  1
     eigenvalues:
       0.127  0.127  0.713  0.713  0.770
     eigenvectors (columns):
      -0.686  0.725  0.060 -0.013  0.000
      -0.014 -0.048  0.544  0.607 -0.577
       0.048  0.012  0.254 -0.774 -0.577
       0.725  0.686  0.013  0.060 -0.000
       0.034 -0.036  0.798 -0.167  0.577
     occupation matrix ns (before diag.):
       0.129  0.015  0.015  0.000  0.029
       0.015  0.730  0.020  0.025 -0.020
       0.015  0.020  0.730 -0.025 -0.020
       0.000  0.025 -0.025  0.129 -0.000
       0.029 -0.020 -0.020 -0.000  0.730
     SPIN  2
     eigenvalues:
       0.988  0.988  0.993  0.993  0.993
     eigenvectors (columns):
       0.693  0.720  0.000  0.031  0.005
       0.007 -0.025 -0.577  0.508 -0.639
      -0.025  0.006 -0.577  0.299  0.759
      -0.720  0.693 -0.000  0.005 -0.031
      -0.018 -0.019  0.577  0.807  0.121
     occupation matrix ns (before diag.):
       0.988  0.000  0.000  0.000  0.000
       0.000  0.993 -0.000  0.000  0.000
       0.000 -0.000  0.993 -0.000  0.000
       0.000  0.000 -0.000  0.988 -0.000
       0.000  0.000  0.000 -0.000  0.993

     Number of occupied Hubbard levels =   14.6640

     HUBBARD ENERGY =    0.4244  (Ry)

     total cpu time spent up to now is        6.0 secs

     total energy              =    -678.27008610 Ry
     estimated scf accuracy    <       0.01921653 Ry

     total magnetization       =     0.16 Bohr mag/cell
     absolute magnetization    =     5.39 Bohr mag/cell

     iteration #  9     ecut=    50.00 Ry     beta= 0.70
     Davidson diagonalization with overlap

---- Real-time Memory Report at c_bands before calling an iterative solver
           134 MiB given to the printing process from OS
             0 MiB allocation reported by mallinfo(arena+hblkhd)
        210602 MiB available memory on the node where the printing process lives
------------------
     ethr =  4.18E-05,  avg # of iterations =  2.1

     =================== HUBBARD OCCUPATIONS ===================
     ------------------------ ATOM    1 ------------------------
     Tr[ns(  1)] (up, down, total) =   4.95377  2.40601  7.35979
     Atomic magnetic moment for atom   1 =   2.54776
     SPIN  1
     eigenvalues:
       0.988  0.988  0.992  0.993  0.993
     eigenvectors (columns):
       0.702 -0.712  0.000 -0.010  0.001
      -0.002 -0.008 -0.577  0.479  0.661
       0.008  0.002 -0.577  0.333 -0.746
      -0.712 -0.702 -0.000 -0.001 -0.010
       0.006 -0.006  0.577  0.812 -0.085
     occupation matrix ns (before diag.):
       0.988 -0.000 -0.000  0.000 -0.000
      -0.000  0.993 -0.000 -0.000  0.000
      -0.000 -0.000  0.993  0.000  0.000
       0.000 -0.000  0.000  0.988 -0.000
      -0.000  0.000  0.000 -0.000  0.993
     SPIN  2
     eigenvalues:
       0.117  0.117  0.705  0.733  0.733
     eigenvectors (columns):
       0.736  0.675  0.000  0.047  0.008
       0.008 -0.038 -0.577  0.515 -0.633
      -0.037  0.012 -0.577  0.291  0.762
      -0.675  0.736 -0.000  0.008 -0.047
      -0.029 -0.026  0.577  0.805  0.129
     occupation matrix ns (before diag.):
       0.119  0.012  0.012  0.000  0.024
       0.012  0.723 -0.009  0.021  0.009
       0.012 -0.009  0.723 -0.021  0.009
       0.000  0.021 -0.021  0.119 -0.000
       0.024  0.009  0.009 -0.000  0.723
     ------------------------ ATOM    2 ------------------------
     Tr[ns(  2)] (up, down, total) =   2.28155  4.95304  7.23458
     Atomic magnetic moment for atom   2 =  -2.67149
     SPIN  1
     eigenvalues:
       0.115  0.115  0.645  0.645  0.761
     eigenvectors (columns):
      -0.793  0.608  0.046 -0.008  0.000
      -0.005 -0.037  0.520  0.629 -0.577
       0.035  0.014  0.285 -0.764 -0.577
       0.608  0.793  0.008  0.046 -0.000
       0.030 -0.023  0.804 -0.136  0.577
     occupation matrix ns (before diag.):
       0.116  0.010  0.010  0.000  0.020
       0.010  0.683  0.039  0.017 -0.039
       0.010  0.039  0.683 -0.017 -0.039
       0.000  0.017 -0.017  0.116 -0.000
       0.020 -0.039 -0.039 -0.000  0.683
     SPIN  2
     eigenvalues:
       0.988  0.988  0.992  0.993  0.993
     eigenvectors (columns):
       0.694  0.715  0.000  0.085  0.014
       0.019 -0.068 -0.577  0.516 -0.629
      -0.068  0.017 -0.577  0.286  0.761
      -0.715  0.694 -0.000  0.014 -0.085
      -0.049 -0.050  0.577  0.803  0.133
     occupation matrix ns (before diag.):
       0.988  0.000  0.000  0.000  0.000
       0.000  0.992 -0.000  0.000  0.000
       0.000 -0.000  0.992 -0.000  0.000
       0.000  0.000 -0.000  0.988 -0.000
       0.000  0.000  0.000 -0.000  0.992

     Number of occupied Hubbard levels =   14.5944

     HUBBARD ENERGY =    0.4275  (Ry)

     total cpu time spent up to now is        6.6 secs

     total energy              =    -678.27319715 Ry
     estimated scf accuracy    <       0.01028511 Ry

     total magnetization       =    -0.14 Bohr mag/cell
     absolute magnetization    =     5.43 Bohr mag/cell

     iteration # 10     ecut=    50.00 Ry     beta= 0.70
     Davidson diagonalization with overlap

---- Real-time Memory Report at c_bands before calling an iterative solver
           134 MiB given to the printing process from OS
             0 MiB allocation reported by mallinfo(arena+hblkhd)
        210600 MiB available memory on the node where the printing process lives
------------------
     ethr =  2.24E-05,  avg # of iterations =  1.0

     =================== HUBBARD OCCUPATIONS ===================
     ------------------------ ATOM    1 ------------------------
     Tr[ns(  1)] (up, down, total) =   4.95375  2.39030  7.34405
     Atomic magnetic moment for atom   1 =   2.56345
     SPIN  1
     eigenvalues:
       0.988  0.988  0.992  0.993  0.993
     eigenvectors (columns):
      -0.723 -0.690  0.000  0.027  0.003
       0.005 -0.022  0.577 -0.481  0.659
      -0.022  0.006  0.577 -0.330 -0.746
       0.690 -0.723 -0.000  0.003 -0.027
      -0.016 -0.016 -0.577 -0.811 -0.087
     occupation matrix ns (before diag.):
       0.988 -0.000 -0.000  0.000 -0.000
      -0.000  0.992 -0.000 -0.000  0.000
      -0.000 -0.000  0.992  0.000  0.000
       0.000 -0.000  0.000  0.988 -0.000
      -0.000  0.000  0.000 -0.000  0.992
     SPIN  2
     eigenvalues:
       0.117  0.117  0.650  0.753  0.753
     eigenvectors (columns):
      -0.701  0.712  0.000  0.043  0.007
      -0.009 -0.034 -0.577  0.514 -0.633
       0.034  0.009 -0.577  0.291  0.762
       0.712  0.701 -0.000  0.007 -0.043
       0.025 -0.025  0.577  0.805  0.129
     occupation matrix ns (before diag.):
       0.118  0.011  0.011  0.000  0.022
       0.011  0.718 -0.034  0.019  0.034
       0.011 -0.034  0.718 -0.019  0.034
       0.000  0.019 -0.019  0.118 -0.000
       0.022  0.034  0.034 -0.000  0.718
     ------------------------ ATOM    2 ------------------------
     Tr[ns(  2)] (up, down, total) =   2.29656  4.95293  7.24949
     Atomic magnetic moment for atom   2 =  -2.65637
     SPIN  1
     eigenvalues:
       0.116  0.116  0.642  0.642  0.781
     eigenvectors (columns):
      -0.777  0.628  0.043 -0.007  0.000
      -0.006 -0.035  0.517  0.631 -0.577
       0.033  0.013  0.288 -0.763 -0.577
       0.628  0.777  0.007  0.043 -0.000
       0.028 -0.022  0.805 -0.132  0.577
     occupation matrix ns (before diag.):
       0.117  0.009  0.009  0.000  0.019
       0.009  0.688  0.047  0.016 -0.047
       0.009  0.047  0.688 -0.016 -0.047
       0.000  0.016 -0.016  0.117 -0.000
       0.019 -0.047 -0.047 -0.000  0.688
     SPIN  2
     eigenvalues:
       0.988  0.988  0.992  0.993  0.993
     eigenvectors (columns):
       0.686  0.720  0.000  0.105  0.020
       0.025 -0.084 -0.577  0.532 -0.613
      -0.085  0.021 -0.577  0.265  0.767
      -0.720  0.686 -0.000  0.020 -0.105
      -0.060 -0.063  0.577  0.797  0.154
     occupation matrix ns (before diag.):
       0.988  0.000  0.000  0.000  0.000
       0.000  0.992 -0.000  0.000  0.000
       0.000 -0.000  0.992 -0.000  0.000
       0.000  0.000 -0.000  0.988 -0.000
       0.000  0.000  0.000 -0.000  0.992

     Number of occupied Hubbard levels =   14.5935

     HUBBARD ENERGY =    0.4327  (Ry)

     total cpu time spent up to now is        7.1 secs

     total energy              =    -678.27218380 Ry
     estimated scf accuracy    <       0.00879764 Ry

     total magnetization       =    -0.10 Bohr mag/cell
     absolute magnetization    =     5.43 Bohr mag/cell

     iteration # 11     ecut=    50.00 Ry     beta= 0.70
     Davidson diagonalization with overlap

---- Real-time Memory Report at c_bands before calling an iterative solver
           134 MiB given to the printing process from OS
             0 MiB allocation reported by mallinfo(arena+hblkhd)
        210604 MiB available memory on the node where the printing process lives
------------------
     ethr =  1.91E-05,  avg # of iterations =  1.0

     =================== HUBBARD OCCUPATIONS ===================
     ------------------------ ATOM    1 ------------------------
     Tr[ns(  1)] (up, down, total) =   4.95366  2.36501  7.31867
     Atomic magnetic moment for atom   1 =   2.58866
     SPIN  1
     eigenvalues:
       0.988  0.988  0.992  0.993  0.993
     eigenvectors (columns):
       0.703  0.710  0.000  0.032  0.004
       0.007 -0.025 -0.577  0.497 -0.647
      -0.025  0.007 -0.577  0.312  0.754
      -0.710  0.703 -0.000  0.004 -0.032
      -0.018 -0.019  0.577  0.809  0.107
     occupation matrix ns (before diag.):
       0.988  0.000  0.000  0.000  0.000
       0.000  0.993 -0.000  0.000  0.000
       0.000 -0.000  0.993 -0.000  0.000
       0.000  0.000 -0.000  0.988 -0.000
       0.000  0.000  0.000 -0.000  0.993
     SPIN  2
     eigenvalues:
       0.118  0.118  0.664  0.733  0.733
     eigenvectors (columns):
      -0.612  0.789  0.000  0.043  0.006
      -0.014 -0.033 -0.577  0.505 -0.640
       0.036  0.005 -0.577  0.302  0.758
       0.789  0.612 -0.000  0.006 -0.043
       0.022 -0.028  0.577  0.807  0.117
     occupation matrix ns (before diag.):
       0.119  0.011  0.011  0.000  0.022
       0.011  0.709 -0.022  0.019  0.022
       0.011 -0.022  0.709 -0.019  0.022
       0.000  0.019 -0.019  0.119 -0.000
       0.022  0.022  0.022 -0.000  0.709
     ------------------------ ATOM    2 ------------------------
     Tr[ns(  2)] (up, down, total) =   2.32907  4.95358  7.28265
     Atomic magnetic moment for atom   2 =  -2.62452
     SPIN  1
     eigenvalues:
       0.118  0.118  0.686  0.686  0.722
     eigenvectors (columns):
      -0.726  0.687  0.042 -0.007  0.000
      -0.008 -0.034  0.522  0.627 -0.577
       0.034  0.010  0.282 -0.765 -0.577
       0.687  0.726  0.007  0.042 -0.000
       0.025 -0.024  0.804 -0.138  0.577
     occupation matrix ns (before diag.):
       0.119  0.010  0.010  0.000  0.020
       0.010  0.697  0.012  0.017 -0.012
       0.010  0.012  0.697 -0.017 -0.012
       0.000  0.017 -0.017  0.119 -0.000
       0.020 -0.012 -0.012 -0.000  0.697
     SPIN  2
     eigenvalues:
       0.988  0.988  0.992  0.993  0.993
     eigenvectors (columns):
       0.681  0.728  0.000  0.081  0.012
       0.019 -0.064 -0.577  0.507 -0.637
      -0.065  0.015 -0.577  0.298  0.757
      -0.728  0.681 -0.000  0.012 -0.081
      -0.046 -0.049  0.577  0.805  0.120
     occupation matrix ns (before diag.):
       0.988  0.000  0.000  0.000  0.000
       0.000  0.993 -0.000  0.000  0.000
       0.000 -0.000  0.993 -0.000  0.000
       0.000  0.000 -0.000  0.988 -0.000
       0.000  0.000  0.000 -0.000  0.993

     Number of occupied Hubbard levels =   14.6013

     HUBBARD ENERGY =    0.4349  (Ry)

     total cpu time spent up to now is        7.6 secs

     total energy              =    -678.27149727 Ry
     estimated scf accuracy    <       0.00222736 Ry

     total magnetization       =    -0.04 Bohr mag/cell
     absolute magnetization    =     5.43 Bohr mag/cell

     iteration # 12     ecut=    50.00 Ry     beta= 0.70
     Davidson diagonalization with overlap

---- Real-time Memory Report at c_bands before calling an iterative solver
           134 MiB given to the printing process from OS
             0 MiB allocation reported by mallinfo(arena+hblkhd)
        210603 MiB available memory on the node where the printing process lives
------------------
     ethr =  4.84E-06,  avg # of iterations =  1.3

     =================== HUBBARD OCCUPATIONS ===================
     ------------------------ ATOM    1 ------------------------
     Tr[ns(  1)] (up, down, total) =   4.95350  2.33865  7.29215
     Atomic magnetic moment for atom   1 =   2.61485
     SPIN  1
     eigenvalues:
       0.988  0.988  0.992  0.993  0.993
     eigenvectors (columns):
       0.701  0.711  0.000  0.058  0.009
       0.013 -0.046 -0.577  0.511 -0.635
      -0.046  0.012 -0.577  0.294  0.760
      -0.711  0.701 -0.000  0.009 -0.058
      -0.034 -0.034  0.577  0.805  0.125
     occupation matrix ns (before diag.):
       0.988  0.000  0.000  0.000  0.000
       0.000  0.993 -0.000  0.000  0.000
       0.000 -0.000  0.993 -0.000  0.000
       0.000  0.000 -0.000  0.988 -0.000
       0.000  0.000  0.000 -0.000  0.993
     SPIN  2
     eigenvalues:
       0.119  0.119  0.676  0.676  0.749
     eigenvectors (columns):
      -0.721  0.692  0.036 -0.006  0.000
      -0.007 -0.029  0.513  0.635 -0.577
       0.029  0.008  0.293 -0.761 -0.577
       0.692  0.721  0.006  0.036 -0.000
       0.022 -0.021  0.806 -0.127  0.577
     occupation matrix ns (before diag.):
       0.119  0.008  0.008  0.000  0.017
       0.008  0.700  0.025  0.014 -0.025
       0.008  0.025  0.700 -0.014 -0.025
       0.000  0.014 -0.014  0.119 -0.000
       0.017 -0.025 -0.025 -0.000  0.700
     ------------------------ ATOM    2 ------------------------
     Tr[ns(  2)] (up, down, total) =   2.37190  4.95390  7.32580
     Atomic magnetic moment for atom   2 =  -2.58200
     SPIN  1
     eigenvalues:
       0.120  0.120  0.695  0.695  0.743
     eigenvectors (columns):
      -0.669  0.743  0.035 -0.006  0.000
      -0.009 -0.027  0.518  0.630 -0.577
       0.028  0.006  0.286 -0.764 -0.577
       0.743  0.669  0.006  0.035 -0.000
       0.019 -0.021  0.805 -0.134  0.577
     occupation matrix ns (before diag.):
       0.120  0.008  0.008  0.000  0.016
       0.008  0.710  0.016  0.014 -0.016
       0.008  0.016  0.710 -0.014 -0.016
       0.000  0.014 -0.014  0.120 -0.000
       0.016 -0.016 -0.016 -0.000  0.710
     SPIN  2
     eigenvalues:
       0.988  0.988  0.992  0.993  0.993
     eigenvectors (columns):
       0.705  0.708  0.000  0.042  0.006
       0.009 -0.034 -0.577  0.501 -0.644
      -0.034  0.009 -0.577  0.307  0.756
      -0.708  0.705 -0.000  0.006 -0.042
      -0.024 -0.025  0.577  0.808  0.112
     occupation matrix ns (before diag.):
       0.988  0.000  0.000  0.000  0.000
       0.000  0.993 -0.000  0.000  0.000
       0.000 -0.000  0.993 -0.000  0.000
       0.000  0.000 -0.000  0.988 -0.000
       0.000  0.000  0.000 -0.000  0.993

     Number of occupied Hubbard levels =   14.6180

     HUBBARD ENERGY =    0.4362  (Ry)

     total cpu time spent up to now is        8.2 secs

     total energy              =    -678.27257700 Ry
     estimated scf accuracy    <       0.00098428 Ry

     total magnetization       =     0.04 Bohr mag/cell
     absolute magnetization    =     5.41 Bohr mag/cell

     iteration # 13     ecut=    50.00 Ry     beta= 0.70
     Davidson diagonalization with overlap

---- Real-time Memory Report at c_bands before calling an iterative solver
           134 MiB given to the printing process from OS
             0 MiB allocation reported by mallinfo(arena+hblkhd)
        210603 MiB available memory on the node where the printing process lives
------------------
     ethr =  2.14E-06,  avg # of iterations =  1.0

     =================== HUBBARD OCCUPATIONS ===================
     ------------------------ ATOM    1 ------------------------
     Tr[ns(  1)] (up, down, total) =   4.95352  2.34907  7.30259
     Atomic magnetic moment for atom   1 =   2.60445
     SPIN  1
     eigenvalues:
       0.988  0.988  0.992  0.993  0.993
     eigenvectors (columns):
       0.695  0.716  0.000  0.068  0.010
       0.015 -0.054 -0.577  0.506 -0.638
      -0.054  0.014 -0.577  0.300  0.758
      -0.716  0.695 -0.000  0.010 -0.068
      -0.039 -0.040  0.577  0.806  0.119
     occupation matrix ns (before diag.):
       0.988  0.000  0.000  0.000  0.000
       0.000  0.993 -0.000  0.000  0.000
       0.000 -0.000  0.993 -0.000  0.000
       0.000  0.000 -0.000  0.988 -0.000
       0.000  0.000  0.000 -0.000  0.993
     SPIN  2
     eigenvalues:
       0.118  0.118  0.692  0.692  0.729
     eigenvectors (columns):
       0.685 -0.728  0.027 -0.004  0.000
       0.006  0.021  0.515  0.633 -0.577
      -0.021 -0.005  0.291 -0.763 -0.577
      -0.728 -0.685  0.004  0.027 -0.000
      -0.015  0.016  0.806 -0.130  0.577
     occupation matrix ns (before diag.):
       0.119  0.006  0.006  0.000  0.013
       0.006  0.704  0.012  0.011 -0.012
       0.006  0.012  0.704 -0.011 -0.012
       0.000  0.011 -0.011  0.119 -0.000
       0.013 -0.012 -0.012 -0.000  0.704
     ------------------------ ATOM    2 ------------------------
     Tr[ns(  2)] (up, down, total) =   2.35676  4.95355  7.31030
     Atomic magnetic moment for atom   2 =  -2.59679
     SPIN  1
     eigenvalues:
       0.119  0.119  0.693  0.693  0.733
     eigenvectors (columns):
       0.635  0.772  0.025 -0.004  0.000
       0.007 -0.020  0.515  0.633 -0.577
      -0.021  0.003  0.291 -0.762 -0.577
      -0.772  0.635  0.004  0.025 -0.000
      -0.013 -0.016  0.806 -0.129  0.577
     occupation matrix ns (before diag.):
       0.119  0.006  0.006  0.000  0.012
       0.006  0.706  0.014  0.010 -0.014
       0.006  0.014  0.706 -0.010 -0.014
       0.000  0.010 -0.010  0.119 -0.000
       0.012 -0.014 -0.014 -0.000  0.706
     SPIN  2
     eigenvalues:
       0.988  0.988  0.992  0.993  0.993
     eigenvectors (columns):
       0.691  0.719  0.000  0.069  0.011
       0.016 -0.055 -0.577  0.512 -0.633
      -0.055  0.014 -0.577  0.293  0.760
      -0.719  0.691 -0.000  0.011 -0.069
      -0.039 -0.041  0.577  0.805  0.127
     occupation matrix ns (before diag.):
       0.988  0.000  0.000  0.000  0.000
       0.000  0.993 -0.000  0.000  0.000
       0.000 -0.000  0.993 -0.000  0.000
       0.000  0.000 -0.000  0.988 -0.000
       0.000  0.000  0.000 -0.000  0.993

     Number of occupied Hubbard levels =   14.6129

     HUBBARD ENERGY =    0.4359  (Ry)

     total cpu time spent up to now is        8.7 secs

     total energy              =    -678.27271886 Ry
     estimated scf accuracy    <       0.00010489 Ry

     total magnetization       =     0.01 Bohr mag/cell
     absolute magnetization    =     5.42 Bohr mag/cell

     iteration # 14     ecut=    50.00 Ry     beta= 0.70
     Davidson diagonalization with overlap

---- Real-time Memory Report at c_bands before calling an iterative solver
           134 MiB given to the printing process from OS
             0 MiB allocation reported by mallinfo(arena+hblkhd)
        210603 MiB available memory on the node where the printing process lives
------------------
     ethr =  2.28E-07,  avg # of iterations =  2.0

     =================== HUBBARD OCCUPATIONS ===================
     ------------------------ ATOM    1 ------------------------
     Tr[ns(  1)] (up, down, total) =   4.95344  2.36081  7.31425
     Atomic magnetic moment for atom   1 =   2.59264
     SPIN  1
     eigenvalues:
       0.988  0.988  0.992  0.993  0.993
     eigenvectors (columns):
       0.678 -0.729 -0.000  0.087  0.018
       0.021  0.070  0.577  0.537 -0.611
      -0.071 -0.016  0.577  0.260  0.770
      -0.729 -0.678  0.000  0.018 -0.087
      -0.050  0.053 -0.577  0.797  0.160
     occupation matrix ns (before diag.):
       0.988  0.000  0.000  0.000  0.000
       0.000  0.992 -0.000  0.000  0.000
       0.000 -0.000  0.992 -0.000  0.000
       0.000  0.000 -0.000  0.988 -0.000
       0.000  0.000  0.000 -0.000  0.992
     SPIN  2
     eigenvalues:
       0.118  0.118  0.698  0.698  0.728
     eigenvectors (columns):
      -0.758  0.653  0.012 -0.002  0.000
      -0.002 -0.009  0.508  0.639 -0.577
       0.009  0.003  0.300 -0.759 -0.577
       0.653  0.758  0.002  0.012 -0.000
       0.007 -0.006  0.808 -0.120  0.577
     occupation matrix ns (before diag.):
       0.118  0.003  0.003  0.000  0.006
       0.003  0.708  0.010  0.005 -0.010
       0.003  0.010  0.708 -0.005 -0.010
       0.000  0.005 -0.005  0.118 -0.000
       0.006 -0.010 -0.010 -0.000  0.708
     ------------------------ ATOM    2 ------------------------
     Tr[ns(  2)] (up, down, total) =   2.34601  4.95329  7.29930
     Atomic magnetic moment for atom   2 =  -2.60728
     SPIN  1
     eigenvalues:
       0.118  0.118  0.691  0.691  0.728
     eigenvectors (columns):
       0.809  0.588  0.010 -0.002  0.000
       0.001 -0.009  0.516  0.632 -0.577
      -0.008  0.003  0.289 -0.763 -0.577
      -0.588  0.809  0.002  0.010 -0.000
      -0.007 -0.005  0.806 -0.131  0.577
     occupation matrix ns (before diag.):
       0.118  0.002  0.002  0.000  0.005
       0.002  0.703  0.012  0.004 -0.012
       0.002  0.012  0.703 -0.004 -0.012
       0.000  0.004 -0.004  0.118 -0.000
       0.005 -0.012 -0.012 -0.000  0.703
     SPIN  2
     eigenvalues:
       0.988  0.988  0.992  0.993  0.993
     eigenvectors (columns):
       0.683  0.724  0.000  0.093  0.017
       0.022 -0.074 -0.577  0.527 -0.619
      -0.075  0.018 -0.577  0.272  0.766
      -0.724  0.683 -0.000  0.017 -0.093
      -0.053 -0.056  0.577  0.799  0.147
     occupation matrix ns (before diag.):
       0.988  0.000  0.000  0.000  0.000
       0.000  0.992 -0.000  0.000  0.000
       0.000 -0.000  0.992 -0.000  0.000
       0.000  0.000 -0.000  0.988 -0.000
       0.000  0.000  0.000 -0.000  0.992

     Number of occupied Hubbard levels =   14.6135

     HUBBARD ENERGY =    0.4347  (Ry)

     total cpu time spent up to now is        9.3 secs

     total energy              =    -678.27282713 Ry
     estimated scf accuracy    <       0.00019330 Ry

     total magnetization       =    -0.02 Bohr mag/cell
     absolute magnetization    =     5.41 Bohr mag/cell

     iteration # 15     ecut=    50.00 Ry     beta= 0.70
     Davidson diagonalization with overlap

---- Real-time Memory Report at c_bands before calling an iterative solver
           134 MiB given to the printing process from OS
             0 MiB allocation reported by mallinfo(arena+hblkhd)
        210603 MiB available memory on the node where the printing process lives
------------------
     ethr =  2.28E-07,  avg # of iterations =  1.4

     =================== HUBBARD OCCUPATIONS ===================
     ------------------------ ATOM    1 ------------------------
     Tr[ns(  1)] (up, down, total) =   4.95324  2.35376  7.30700
     Atomic magnetic moment for atom   1 =   2.59948
     SPIN  1
     eigenvalues:
       0.988  0.988  0.992  0.993  0.993
     eigenvectors (columns):
       0.683  0.723  0.000  0.100  0.021
       0.024 -0.080 -0.577  0.540 -0.607
      -0.081  0.019 -0.577  0.256  0.771
      -0.723  0.683 -0.000  0.021 -0.100
      -0.057 -0.061  0.577  0.795  0.164
     occupation matrix ns (before diag.):
       0.988  0.000  0.000  0.000  0.000
       0.000  0.992 -0.000  0.000  0.000
       0.000 -0.000  0.992 -0.000  0.000
       0.000  0.000 -0.000  0.988 -0.000
       0.000  0.000  0.000 -0.000  0.992
     SPIN  2
     eigenvalues:
       0.118  0.118  0.688  0.688  0.741
     eigenvectors (columns):
      -0.774  0.633  0.001 -0.000  0.000
      -0.000 -0.001  0.505  0.642 -0.577
       0.001  0.000  0.303 -0.758 -0.577
       0.633  0.774  0.000  0.001 -0.000
       0.001 -0.000  0.808 -0.116  0.577
     occupation matrix ns (before diag.):
       0.118  0.000  0.000  0.000  0.000
       0.000  0.706  0.018  0.000 -0.018
       0.000  0.018  0.706 -0.000 -0.018
       0.000  0.000 -0.000  0.118 -0.000
       0.000 -0.018 -0.018 -0.000  0.706
     ------------------------ ATOM    2 ------------------------
     Tr[ns(  2)] (up, down, total) =   2.35683  4.95319  7.31002
     Atomic magnetic moment for atom   2 =  -2.59635
     SPIN  1
     eigenvalues:
       0.118  0.118  0.690  0.690  0.740
     eigenvectors (columns):
      -0.706 -0.708  0.001 -0.000  0.000
      -0.000  0.001  0.494  0.650 -0.577
       0.001 -0.000  0.316 -0.753 -0.577
       0.708 -0.706  0.000  0.001 -0.000
       0.000  0.000  0.810 -0.103  0.577
     occupation matrix ns (before diag.):
       0.118  0.000  0.000  0.000  0.000
       0.000  0.707  0.016  0.000 -0.016
       0.000  0.016  0.707 -0.000 -0.016
       0.000  0.000 -0.000  0.118 -0.000
       0.000 -0.016 -0.016 -0.000  0.707
     SPIN  2
     eigenvalues:
       0.988  0.988  0.992  0.993  0.993
     eigenvectors (columns):
       0.687  0.719  0.000  0.099  0.018
       0.023 -0.079 -0.577  0.526 -0.619
      -0.080  0.019 -0.577  0.273  0.765
      -0.719  0.687 -0.000  0.018 -0.099
      -0.057 -0.059  0.577  0.799  0.146
     occupation matrix ns (before diag.):
       0.988  0.000  0.000  0.000  0.000
       0.000  0.992 -0.000  0.000  0.000
       0.000 -0.000  0.992 -0.000  0.000
       0.000  0.000 -0.000  0.988 -0.000
       0.000  0.000  0.000 -0.000  0.992

     Number of occupied Hubbard levels =   14.6170

     HUBBARD ENERGY =    0.4341  (Ry)

     total cpu time spent up to now is        9.9 secs

     total energy              =    -678.27294853 Ry
     estimated scf accuracy    <       0.00000864 Ry

     total magnetization       =     0.00 Bohr mag/cell
     absolute magnetization    =     5.41 Bohr mag/cell

     iteration # 16     ecut=    50.00 Ry     beta= 0.70
     Davidson diagonalization with overlap

---- Real-time Memory Report at c_bands before calling an iterative solver
           134 MiB given to the printing process from OS
             0 MiB allocation reported by mallinfo(arena+hblkhd)
        210605 MiB available memory on the node where the printing process lives
------------------
     ethr =  1.88E-08,  avg # of iterations =  2.0

     =================== HUBBARD OCCUPATIONS ===================
     ------------------------ ATOM    1 ------------------------
     Tr[ns(  1)] (up, down, total) =   4.95320  2.35374  7.30694
     Atomic magnetic moment for atom   1 =   2.59945
     SPIN  1
     eigenvalues:
       0.988  0.988  0.992  0.993  0.993
     eigenvectors (columns):
       0.684 -0.721 -0.000  0.104  0.020
       0.025  0.083  0.577  0.534 -0.612
      -0.084 -0.020  0.577  0.263  0.768
      -0.721 -0.684  0.000  0.020 -0.104
      -0.059  0.063 -0.577  0.797  0.156
     occupation matrix ns (before diag.):
       0.988  0.000  0.000  0.000  0.000
       0.000  0.992 -0.000  0.000  0.000
       0.000 -0.000  0.992 -0.000  0.000
       0.000  0.000 -0.000  0.988 -0.000
       0.000  0.000  0.000 -0.000  0.992
     SPIN  2
     eigenvalues:
       0.118  0.118  0.688  0.688  0.742
     eigenvectors (columns):
      -0.746  0.666 -0.002  0.000  0.000
       0.000  0.002  0.506  0.640 -0.577
      -0.002 -0.001  0.301 -0.759 -0.577
       0.666  0.746 -0.000 -0.002 -0.000
      -0.001  0.001  0.808 -0.118  0.577
     occupation matrix ns (before diag.):
       0.118 -0.000 -0.000  0.000 -0.001
      -0.000  0.706  0.018 -0.001 -0.018
      -0.000  0.018  0.706  0.001 -0.018
       0.000 -0.001  0.001  0.118 -0.000
      -0.001 -0.018 -0.018 -0.000  0.706
     ------------------------ ATOM    2 ------------------------
     Tr[ns(  2)] (up, down, total) =   2.35541  4.95317  7.30857
     Atomic magnetic moment for atom   2 =  -2.59776
     SPIN  1
     eigenvalues:
       0.118  0.118  0.689  0.689  0.741
     eigenvectors (columns):
       0.841 -0.542 -0.002  0.000  0.000
      -0.000 -0.002  0.485  0.657 -0.577
       0.002  0.001  0.326 -0.748 -0.577
      -0.542 -0.841 -0.000 -0.002 -0.000
       0.001 -0.001  0.811 -0.092  0.577
     occupation matrix ns (before diag.):
       0.118 -0.000 -0.000  0.000 -0.001
      -0.000  0.707  0.017 -0.001 -0.017
      -0.000  0.017  0.707  0.001 -0.017
       0.000 -0.001  0.001  0.118 -0.000
      -0.001 -0.017 -0.017 -0.000  0.707
     SPIN  2
     eigenvalues:
       0.988  0.988  0.992  0.993  0.993
     eigenvectors (columns):
       0.694  0.712  0.000  0.102  0.021
       0.023 -0.082 -0.577  0.539 -0.607
      -0.083  0.021 -0.577  0.256  0.771
      -0.712  0.694 -0.000  0.021 -0.102
      -0.060 -0.061  0.577  0.795  0.164
     occupation matrix ns (before diag.):
       0.988  0.000  0.000  0.000  0.000
       0.000  0.992 -0.000  0.000  0.000
       0.000 -0.000  0.992 -0.000  0.000
       0.000  0.000 -0.000  0.988 -0.000
       0.000  0.000  0.000 -0.000  0.992

     Number of occupied Hubbard levels =   14.6155

     HUBBARD ENERGY =    0.4342  (Ry)

     total cpu time spent up to now is       10.5 secs

     total energy              =    -678.27295698 Ry
     estimated scf accuracy    <       0.00000206 Ry

     total magnetization       =     0.00 Bohr mag/cell
     absolute magnetization    =     5.41 Bohr mag/cell

     iteration # 17     ecut=    50.00 Ry     beta= 0.70
     Davidson diagonalization with overlap

---- Real-time Memory Report at c_bands before calling an iterative solver
           134 MiB given to the printing process from OS
             0 MiB allocation reported by mallinfo(arena+hblkhd)
        210603 MiB available memory on the node where the printing process lives
------------------
     ethr =  4.47E-09,  avg # of iterations =  1.0

     =================== HUBBARD OCCUPATIONS ===================
     ------------------------ ATOM    1 ------------------------
     Tr[ns(  1)] (up, down, total) =   4.95319  2.35565  7.30884
     Atomic magnetic moment for atom   1 =   2.59754
     SPIN  1
     eigenvalues:
       0.988  0.988  0.992  0.993  0.993
     eigenvectors (columns):
       0.695  0.711  0.000  0.104  0.018
       0.023 -0.083 -0.577  0.523 -0.621
      -0.083  0.021 -0.577  0.276  0.763
      -0.711  0.695 -0.000  0.018 -0.104
      -0.060 -0.062  0.577  0.799  0.142
     occupation matrix ns (before diag.):
       0.988  0.000  0.000  0.000  0.000
       0.000  0.992 -0.000  0.000  0.000
       0.000 -0.000  0.992 -0.000  0.000
       0.000  0.000 -0.000  0.988 -0.000
       0.000  0.000  0.000 -0.000  0.992
     SPIN  2
     eigenvalues:
       0.118  0.118  0.689  0.689  0.742
     eigenvectors (columns):
      -0.781  0.624 -0.002  0.000  0.000
       0.000  0.002  0.511  0.637 -0.577
      -0.002 -0.001  0.296 -0.761 -0.577
       0.624  0.781 -0.000 -0.002 -0.000
      -0.001  0.001  0.807 -0.124  0.577
     occupation matrix ns (before diag.):
       0.118 -0.000 -0.000  0.000 -0.001
      -0.000  0.707  0.018 -0.001 -0.018
      -0.000  0.018  0.707  0.001 -0.018
       0.000 -0.001  0.001  0.118 -0.000
      -0.001 -0.018 -0.018 -0.000  0.707
     ------------------------ ATOM    2 ------------------------
     Tr[ns(  2)] (up, down, total) =   2.35405  4.95316  7.30721
     Atomic magnetic moment for atom   2 =  -2.59910
     SPIN  1
     eigenvalues:
       0.118  0.118  0.689  0.689  0.741
     eigenvectors (columns):
       0.737 -0.676 -0.002  0.000  0.000
      -0.000 -0.002  0.483  0.658 -0.577
       0.002  0.001  0.328 -0.748 -0.577
      -0.676 -0.737 -0.000 -0.002 -0.000
       0.001 -0.001  0.812 -0.089  0.577
     occupation matrix ns (before diag.):
       0.118 -0.000 -0.000  0.000 -0.001
      -0.000  0.706  0.017 -0.001 -0.017
      -0.000  0.017  0.706  0.001 -0.017
       0.000 -0.001  0.001  0.118 -0.000
      -0.001 -0.017 -0.017 -0.000  0.706
     SPIN  2
     eigenvalues:
       0.988  0.988  0.992  0.993  0.993
     eigenvectors (columns):
       0.668  0.737  0.000  0.103  0.021
       0.026 -0.082 -0.577  0.538 -0.608
      -0.084  0.018 -0.577  0.258  0.770
      -0.737  0.668 -0.000  0.021 -0.103
      -0.058 -0.064  0.577  0.796  0.162
     occupation matrix ns (before diag.):
       0.988  0.000  0.000  0.000  0.000
       0.000  0.992 -0.000  0.000  0.000
       0.000 -0.000  0.992 -0.000  0.000
       0.000  0.000 -0.000  0.988 -0.000
[...]
    -4.8268  -4.4091   6.2806   6.4944   6.9362   7.1078   8.1265   8.2968
     8.8154   9.7616  10.5843  11.8528  11.9321  12.1154  13.1179  13.3927
    18.0619  18.0829  19.2981  22.0369

     occupation numbers 
     1.0000   1.0000   1.0000   1.0000   1.0000   1.0000   1.0000   1.0000
     1.0000   1.0000   1.0000   1.0000   1.0000   1.0000   1.0000   1.0000
     1.0000   1.0000   1.0000   1.0000   1.0000   1.0000   0.6988   0.1031
     0.0000   0.0000   0.0000   0.0000

          k = 0.2468 0.2468-0.0983 (  1496 PWs)   bands (ev):

   -82.5946 -79.1154 -46.0884 -46.0796 -45.7689 -42.6877 -42.6771 -42.5335
    -5.3484  -4.7358   6.1096   6.5103   6.8469   7.6734   7.9572   8.6548
     9.2653  10.7462  10.9174  11.6583  12.0010  12.4067  12.8682  13.1302
    17.4797  17.9785  18.2239  20.8218

     occupation numbers 
     1.0000   1.0000   1.0000   1.0000   1.0000   1.0000   1.0000   1.0000
     1.0000   1.0000   1.0000   1.0000   1.0000   1.0000   1.0000   1.0000
     1.0000   1.0000   1.0000   1.0000   1.0000   1.0014   1.0811   0.6654
     0.0000   0.0000   0.0000   0.0000

          k =-1.0353 0.6902 0.3451 (  1500 PWs)   bands (ev):

   -82.5927 -79.1134 -46.1035 -46.0864 -45.7664 -42.7060 -42.6849 -42.5304
    -4.8865  -4.5738   6.0126   6.7704   7.0596   7.3358   7.5772   8.6006
     9.4691   9.7163  10.7309  11.2375  11.7910  12.6056  12.8672  13.3290
    17.5394  18.0462  20.0007  21.3982

     occupation numbers 
     1.0000   1.0000   1.0000   1.0000   1.0000   1.0000   1.0000   1.0000
     1.0000   1.0000   1.0000   1.0000   1.0000   1.0000   1.0000   1.0000
     1.0000   1.0000   1.0000   1.0000   1.0000   1.0201   1.0813   0.1886
     0.0000   0.0000   0.0000   0.0000

          k =-0.7788 0.6015 0.2564 (  1515 PWs)   bands (ev):

   -82.5911 -79.1114 -46.1171 -46.0944 -45.7639 -42.7223 -42.6946 -42.5274
    -4.4855  -4.2901   6.0734   6.3561   6.7290   7.4925   7.5228   8.4857
     9.0402   9.9063  10.2686  11.2323  11.6484  12.5603  13.1709  13.4188
    18.0367  18.1230  21.3929  21.4886

     occupation numbers 
     1.0000   1.0000   1.0000   1.0000   1.0000   1.0000   1.0000   1.0000
     1.0000   1.0000   1.0000   1.0000   1.0000   1.0000   1.0000   1.0000
     1.0000   1.0000   1.0000   1.0000   1.0000   1.0121   0.5529   0.0782
     0.0000   0.0000   0.0000   0.0000

          k =-0.5224 0.5128 0.1677 (  1502 PWs)   bands (ev):

   -82.5911 -79.1115 -46.1171 -46.0944 -45.7639 -42.7223 -42.6946 -42.5274
    -4.4417  -4.3410   6.0054   6.5776   6.8735   7.2898   7.5733   8.3900
     9.3061   9.4793  10.1922  11.2286  11.8451  12.5026  13.1902  13.4135
    17.8768  18.4995  20.5232  22.0189

     occupation numbers 
     1.0000   1.0000   1.0000   1.0000   1.0000   1.0000   1.0000   1.0000
     1.0000   1.0000   1.0000   1.0000   1.0000   1.0000   1.0000   1.0000
     1.0000   1.0000   1.0000   1.0000   1.0000   1.0058   0.5001   0.0828
     0.0000   0.0000   0.0000   0.0000

          k =-0.5918-0.5918 0.7885 (  1492 PWs)   bands (ev):

   -82.5924 -79.1128 -46.1115 -46.0854 -45.7655 -42.7155 -42.6840 -42.5293
    -4.6571  -4.5833   5.9068   6.5545   6.9261   7.2229   8.1378   8.2820
     9.3666   9.6813  10.7280  11.4961  11.7425  12.1917  13.2919  13.3572
    17.8464  18.2357  19.6051  20.9482

     occupation numbers 
     1.0000   1.0000   1.0000   1.0000   1.0000   1.0000   1.0000   1.0000
     1.0000   1.0000   1.0000   1.0000   1.0000   1.0000   1.0000   1.0000
     1.0000   1.0000   1.0000   1.0000   1.0000   1.0000   0.2559   0.1461
     0.0000   0.0000   0.0000   0.0000

          k =-0.3354-0.6805 0.6998 (  1506 PWs)   bands (ev):

   -82.5911 -79.1115 -46.1171 -46.0944 -45.7639 -42.7223 -42.6946 -42.5273
    -4.4500  -4.3280   5.9290   6.5000   6.7620   7.3995   7.4482   8.6042
     9.0897   9.9630  10.1587  11.2576  11.6758  12.5764  13.1989  13.4370
    18.0277  18.2411  20.7102  21.3062

     occupation numbers 
     1.0000   1.0000   1.0000   1.0000   1.0000   1.0000   1.0000   1.0000
     1.0000   1.0000   1.0000   1.0000   1.0000   1.0000   1.0000   1.0000
     1.0000   1.0000   1.0000   1.0000   1.0000   1.0146   0.4766   0.0638
     0.0000   0.0000   0.0000   0.0000

          k =-0.0790-0.7692 0.6111 (  1512 PWs)   bands (ev):

   -82.5904 -79.1108 -46.1095 -46.1095 -45.7630 -42.7128 -42.7128 -42.5263
    -4.2736  -4.2730   6.3294   6.6233   6.8471   6.9910   7.2050   8.4017
     9.2524   9.6218   9.9344  11.2709  11.6477  12.9737  13.0277  13.1723
    18.1313  18.2433  22.4902  22.6327

     occupation numbers 
     1.0000   1.0000   1.0000   1.0000   1.0000   1.0000   1.0000   1.0000
     1.0000   1.0000   1.0000   1.0000   1.0000   1.0000   1.0000   1.0000
     1.0000   1.0000   1.0000   1.0000   1.0000   1.0050   0.9152   0.5490
     0.0000   0.0000   0.0000   0.0000

          k =-0.4241-0.4241 0.6111 (  1512 PWs)   bands (ev):

   -82.5914 -79.1115 -46.1228 -46.0883 -45.7639 -42.7294 -42.6875 -42.5273
    -4.4724  -4.2988   5.5152   6.4700   6.8640   7.3961   7.8349   8.4450
     9.0997   9.8716  10.3614  11.4392  11.8011  12.2272  13.4568  13.5103
    18.2803  18.2865  19.6794  20.8671

     occupation numbers 
     1.0000   1.0000   1.0000   1.0000   1.0000   1.0000   1.0000   1.0000
     1.0000   1.0000   1.0000   1.0000   1.0000   1.0000   1.0000   1.0000
     1.0000   1.0000   1.0000   1.0000   1.0000   1.0000   0.0507   0.0258
     0.0000   0.0000   0.0000   0.0000

          k = 0.1581 0.1581 0.1581 (  1504 PWs)   bands (ev):

   -82.5960 -79.1168 -46.0767 -46.0767 -45.7705 -42.6736 -42.6736 -42.5356
    -5.5445  -4.9447   5.9819   6.6990   6.6990   8.0424   8.0424   8.0652
     9.9716  10.9146  10.9146  12.4303  12.4303  12.5170  12.6986  12.6986
    17.1505  17.9665  17.9665  19.3241

     occupation numbers 
     1.0000   1.0000   1.0000   1.0000   1.0000   1.0000   1.0000   1.0000
     1.0000   1.0000   1.0000   1.0000   1.0000   1.0000   1.0000   1.0000
     1.0000   1.0000   1.0000   1.0020   1.0020   1.0070   1.0461   1.0461
     0.0000   0.0000   0.0000   0.0000

          k =-1.1239 0.6015 0.6015 (  1488 PWs)   bands (ev):

   -82.5945 -79.1154 -46.0884 -46.0796 -45.7688 -42.6877 -42.6771 -42.5335
    -5.2288  -4.8699   6.0511   6.7734   6.8426   7.6275   7.9627   8.5594
     9.2449  10.8415  10.9865  11.2774  12.0601  12.4080  12.9127  13.0528
    17.1298  18.1119  19.2297  20.1719

     occupation numbers 
     1.0000   1.0000   1.0000   1.0000   1.0000   1.0000   1.0000   1.0000
     1.0000   1.0000   1.0000   1.0000   1.0000   1.0000   1.0000   1.0000
     1.0000   1.0000   1.0000   1.0000   1.0000   1.0014   1.0639   0.8620
     0.0000   0.0000   0.0000   0.0000

          k =-0.8675 0.5128 0.5128 (  1502 PWs)   bands (ev):

   -82.5923 -79.1127 -46.1115 -46.0854 -45.7655 -42.7155 -42.6840 -42.5294
    -4.7401  -4.4930   5.7827   6.5419   6.9251   7.4091   8.1444   8.3225
     9.0859  10.2245  10.6945  11.0292  11.8325  12.1629  13.2670  13.3613
    17.5418  18.2671  20.5236  20.8339

     occupation numbers 
     1.0000   1.0000   1.0000   1.0000   1.0000   1.0000   1.0000   1.0000
     1.0000   1.0000   1.0000   1.0000   1.0000   1.0000   1.0000   1.0000
     1.0000   1.0000   1.0000   1.0000   1.0000   1.0000   0.3083   0.1406
     0.0000   0.0000   0.0000   0.0000

          k =-0.6805-0.6805 1.0449 (  1482 PWs)   bands (ev):

   -82.5945 -79.1154 -46.0884 -46.0796 -45.7688 -42.6877 -42.6771 -42.5335
    -5.1271  -4.9792   6.2034   6.6723   6.8535   7.6338   7.9614   8.7014
     8.9513  10.7487  10.8744  11.5142  12.0835  12.3951  12.9811  13.0454
    17.3418  18.0316  19.1059  20.0633

     occupation numbers 
     1.0000   1.0000   1.0000   1.0000   1.0000   1.0000   1.0000   1.0000
     1.0000   1.0000   1.0000   1.0000   1.0000   1.0000   1.0000   1.0000
     1.0000   1.0000   1.0000   1.0000   1.0000   1.0011   0.9949   0.8783
     0.0000   0.0000   0.0000   0.0000

          k =-0.4241-0.7692 0.9562 (  1486 PWs)   bands (ev):

   -82.5927 -79.1134 -46.1035 -46.0863 -45.7664 -42.7059 -42.6849 -42.5304
    -4.7765  -4.6878   5.9566   6.8005   7.1276   7.2885   7.5640   8.6207
     9.5742   9.7295  10.5948  11.2122  11.8196  12.6245  12.8413  13.3556
    17.5128  18.0254  20.5843  20.7392

     occupation numbers 
     1.0000   1.0000   1.0000   1.0000   1.0000   1.0000   1.0000   1.0000
     1.0000   1.0000   1.0000   1.0000   1.0000   1.0000   1.0000   1.0000
     1.0000   1.0000   1.0000   1.0000   1.0000   1.0244   1.0833   0.1484
     0.0000   0.0000   0.0000   0.0000

          k =-0.2371-0.2371-0.2371 (  1504 PWs)   bands (ev):

   -82.5960 -79.1168 -46.0767 -46.0767 -45.7705 -42.6737 -42.6737 -42.5356
    -5.2667  -5.2474   6.3892   6.7101   6.7101   7.7117   8.0475   8.0475
     9.7504  10.8016  10.8016  12.5147  12.5639  12.5639  12.6866  12.6866
    17.9268  17.9268  18.2442  18.4228

     occupation numbers 
     1.0000   1.0000   1.0000   1.0000   1.0000   1.0000   1.0000   1.0000
     1.0000   1.0000   1.0000   1.0000   1.0000   1.0000   1.0000   1.0000
     1.0000   1.0000   1.0000   1.0068   1.0126   1.0126   1.0421   1.0421
     0.0000   0.0000   0.0000   0.0000

     the Fermi energy is    13.2281 ev

!    total energy              =    -678.28440636 Ry
     estimated scf accuracy    <          4.0E-13 Ry
     smearing contrib. (-TS)   =      -0.00378294 Ry
     internal energy E=F+TS    =    -678.28062342 Ry

     The total energy is F=E-TS. E is the sum of the following terms:
     one-electron contribution =    -356.38479963 Ry
     hartree contribution      =     205.85963214 Ry
     xc contribution           =     -79.50878328 Ry
     ewald contribution        =    -430.44951103 Ry
     Hubbard energy            =       0.41748762 Ry
     one-center paw contrib.   =     -18.21464923 Ry
      -> PAW hartree energy AE =       0.00000000 Ry
      -> PAW hartree energy PS =       0.00000000 Ry
      -> PAW xc energy AE      =       0.00000000 Ry
      -> PAW xc energy PS      =       0.00000000 Ry
      -> total E_H with PAW    =     205.85963214 Ry
      -> total E_XC with PAW   =     -79.50878328 Ry

     total magnetization       =     0.00 Bohr mag/cell
     absolute magnetization    =     5.46 Bohr mag/cell

     convergence has been achieved in  32 iterations

     Forces acting on atoms (cartesian axes, Ry/au):

     atom    1 type  1   force =     0.00000000   -0.00000000    0.00000000
     atom    2 type  2   force =     0.00000000    0.00000000   -0.00000000
     atom    3 type  3   force =    -0.00000025   -0.00000025   -0.00000025
     atom    4 type  3   force =     0.00000025    0.00000025    0.00000025
     The non-local contrib.  to forces
     atom    1 type  1   force =     0.00000000    0.00000000    0.00000000
     atom    2 type  2   force =     0.00000000    0.00000000   -0.00000000
     atom    3 type  3   force =     0.00000025    0.00000025    0.00000025
     atom    4 type  3   force =    -0.00000025   -0.00000025   -0.00000025
     The ionic contribution  to forces
     atom    1 type  1   force =     0.00000000    0.00000000    0.00000000
     atom    2 type  2   force =    -0.00000000   -0.00000000   -0.00000000
     atom    3 type  3   force =    -0.00001661   -0.00001661   -0.00001661
     atom    4 type  3   force =     0.00001661    0.00001661    0.00001661
     The local contribution  to forces
     atom    1 type  1   force =    -0.00000000   -0.00000000   -0.00000000
     atom    2 type  2   force =    -0.00000000   -0.00000000   -0.00000000
     atom    3 type  3   force =     0.00001654    0.00001654    0.00001654
     atom    4 type  3   force =    -0.00001654   -0.00001654   -0.00001654
     The core correction contribution to forces
     atom    1 type  1   force =    -0.00000000   -0.00000000   -0.00000000
     atom    2 type  2   force =    -0.00000000   -0.00000000   -0.00000000
     atom    3 type  3   force =     0.00000000    0.00000000    0.00000000
     atom    4 type  3   force =    -0.00000000   -0.00000000   -0.00000000
     The Hubbard contrib.    to forces
     atom    1 type  1   force =    -0.00000000    0.00000000    0.00000000
     atom    2 type  2   force =     0.00000000    0.00000000    0.00000000
     atom    3 type  3   force =     0.00000000    0.00000000    0.00000000
     atom    4 type  3   force =    -0.00000000   -0.00000000   -0.00000000
     The SCF correction term to forces
     atom    1 type  1   force =     0.00000000    0.00000000    0.00000000
     atom    2 type  2   force =    -0.00000000    0.00000000   -0.00000000
     atom    3 type  3   force =    -0.00000043   -0.00000043   -0.00000043
     atom    4 type  3   force =     0.00000043    0.00000043    0.00000043

     Total force =     0.000001     Total SCF correction =     0.000001
     SCF correction compared to forces is large: reduce conv_thr to get better values


     Computing stress (Cartesian axis) and pressure

          total   stress  (Ry/bohr**3)                   (kbar)     P=        1.87
   0.00001272  -0.00000681  -0.00000681            1.87       -1.00       -1.00
  -0.00000681   0.00001272  -0.00000681           -1.00        1.87       -1.00
  -0.00000681  -0.00000681   0.00001272           -1.00       -1.00        1.87

     kinetic stress (kbar)  45778.63     98.98     98.98
                               98.98  45778.63     98.98
                               98.98     98.98  45778.63

     local   stress (kbar)  -8620.49   -264.23   -264.23
                             -264.23  -8620.49   -264.23
                             -264.23   -264.23  -8620.49

     nonloc. stress (kbar)  22715.30    138.96    138.96
                              138.96  22715.30    138.96
                              138.96    138.96  22715.30

     hartree stress (kbar)  40082.78     54.24     54.24
                               54.24  40082.78     54.24
                               54.24     54.24  40082.78

     exc-cor stress (kbar) -11350.14      2.15      2.15
                                2.15 -11350.14      2.15
                                2.15      2.15 -11350.14

     corecor stress (kbar)  -3108.97     -1.44     -1.44
                               -1.44  -3108.97     -1.44
                               -1.44     -1.44  -3108.97

     ewald   stress (kbar) -83812.50    -18.50    -18.50
                              -18.50 -83812.50    -18.50
                              -18.50    -18.50 -83812.50

     hubbard stress (kbar)  -1682.73    -11.17    -11.17
                              -11.17  -1682.73    -11.17
                              -11.17    -11.17  -1682.73

     DFT-D   stress (kbar)      0.00      0.00      0.00
                                0.00      0.00      0.00
                                0.00      0.00      0.00

     XDM     stress (kbar)      0.00      0.00      0.00
                                0.00      0.00      0.00
                                0.00      0.00      0.00

     dft-nl  stress (kbar)      0.00      0.00      0.00
                                0.00      0.00      0.00
                                0.00      0.00      0.00

     TS-vdW  stress (kbar)      0.00      0.00      0.00
                                0.00      0.00      0.00
                                0.00      0.00      0.00

     MDB     stress (kbar)      0.00      0.00      0.00
                                0.00      0.00      0.00
                                0.00      0.00      0.00

     3D-RISM stress (kbar)      0.00      0.00      0.00
                                0.00      0.00      0.00
                                0.00      0.00      0.00


     Writing all to output data dir ./tmp/CoO.save/
 
     init_run     :      0.92s CPU      1.06s WALL (       2 calls)
     electrons    :    106.39s CPU    110.31s WALL (       7 calls)
     update_pot   :      0.75s CPU      0.76s WALL (       5 calls)
     forces       :      2.94s CPU      2.99s WALL (       7 calls)
     stress       :      5.82s CPU      5.90s WALL (       7 calls)

     Called by init_run:
     wfcinit      :      0.44s CPU      0.49s WALL (       2 calls)
     wfcinit:atom :      0.00s CPU      0.00s WALL (      64 calls)
     wfcinit:wfcr :      0.38s CPU      0.41s WALL (      64 calls)
     potinit      :      0.14s CPU      0.17s WALL (       2 calls)
     hinit0       :      0.30s CPU      0.34s WALL (       2 calls)

     Called by electrons:
     c_bands      :     79.35s CPU     82.10s WALL (     196 calls)
     sum_band     :     17.99s CPU     18.39s WALL (     196 calls)
     v_of_rho     :      3.76s CPU      3.97s WALL (     202 calls)
     v_h          :      0.10s CPU      0.12s WALL (     202 calls)
     v_xc         :      3.90s CPU      4.11s WALL (     216 calls)
     newd         :      0.90s CPU      0.94s WALL (     202 calls)
     PAW_pot      :      3.87s CPU      3.89s WALL (     207 calls)
     mix_rho      :      0.40s CPU      0.43s WALL (     196 calls)

     Called by c_bands:
     init_us_2    :      0.36s CPU      0.38s WALL (   13888 calls)
     init_us_2:cp :      0.34s CPU      0.36s WALL (   13888 calls)
     cegterg      :     76.86s CPU     78.76s WALL (    6272 calls)

     Called by sum_band:
     sum_band:wei :      0.29s CPU      0.31s WALL (     196 calls)
     sum_band:loo :     15.27s CPU     15.61s WALL (     196 calls)
     sum_band:buf :      0.02s CPU      0.02s WALL (    6272 calls)
     sum_band:ini :      0.16s CPU      0.17s WALL (    6272 calls)
     sum_band:cal :      0.76s CPU      0.77s WALL (    6432 calls)
     sum_band:bec :      0.08s CPU      0.09s WALL (    6432 calls)
     addusdens    :      1.52s CPU      1.53s WALL (     196 calls)
                                        0.00s GPU  (     196 calls)
     addusd:skk   :      0.00s CPU      0.00s WALL (     588 calls)
                                        0.00s GPU  (     588 calls)

     Called by *egterg:
     cdiaghg      :     10.97s CPU     11.13s WALL (   16571 calls)
     cegterg:over :      1.96s CPU      2.00s WALL (   10491 calls)
     cegterg:upda :      0.36s CPU      0.37s WALL (   10491 calls)
     cegterg:last :      0.66s CPU      0.66s WALL (    9460 calls)
     h_psi        :     61.22s CPU     62.90s WALL (   16827 calls)
     s_psi        :      0.75s CPU      0.77s WALL (   17947 calls)
     g_psi        :      0.06s CPU      0.07s WALL (   10491 calls)

     Called by h_psi:
     h_psi:calbec :      1.67s CPU      1.71s WALL (   16827 calls)
     vloc_psi     :     57.84s CPU     59.45s WALL (   16827 calls)
     add_vuspsi   :      0.71s CPU      0.72s WALL (   16827 calls)
     vhpsi        :      0.89s CPU      0.91s WALL (   16827 calls)

     General routines
     calbec       :      6.88s CPU      7.02s WALL (  137078 calls)
     fft          :      1.97s CPU      2.11s WALL (    5323 calls)
     ffts         :      0.07s CPU      0.08s WALL (     796 calls)
     fftw         :     64.07s CPU     65.77s WALL (  967826 calls)
     interpolate  :      0.19s CPU      0.21s WALL (     404 calls)
     davcio       :      0.00s CPU      0.00s WALL (      64 calls)
 
     Parallel routines

     Hubbard U routines
     new_ns       :      0.33s CPU      0.34s WALL (     196 calls)
     vhpsi        :      0.89s CPU      0.91s WALL (   16827 calls)
     force_hub    :      2.19s CPU      2.22s WALL (       7 calls)
                                        0.00s GPU  (       7 calls)
     stres_hub    :      4.11s CPU      4.16s WALL (       7 calls)

     PAW routines
     PAW_pot      :      3.87s CPU      3.89s WALL (     207 calls)
     PAW_symme    :      0.04s CPU      0.04s WALL (     403 calls)
 
     PWSCF        :   1m57.39s CPU   2m 2.02s WALL

 
   This run was terminated on:  13:42: 6  23Jun2024            

=------------------------------------------------------------------------------=
   JOB DONE.
=------------------------------------------------------------------------------=
