
     Program PWSCF v.7.2 starts on 25May2023 at 15:39:48 

     This program is part of the open-source Quantum ESPRESSO suite
     for quantum simulation of materials; please cite
         "P. Giannozzi et al., J. Phys.:Condens. Matter 21 395502 (2009);
         "P. Giannozzi et al., J. Phys.:Condens. Matter 29 465901 (2017);
         "P. Giannozzi et al., J. Chem. Phys. 152 154105 (2020);
          URL http://www.quantum-espresso.org", 
     in publications or presentations arising from this work. More details at
     http://www.quantum-espresso.org/quote

     Parallel version (MPI), running on     2 processors

     MPI processes distributed on     1 nodes
     264 MiB available memory on the printing compute node when the environment starts

     Waiting for input...
     Reading input from standard input

     Current dimensions of program PWSCF are:
     Max number of different atomic species (ntypx) = 10
     Max number of k-points (npk) =  40000
     Max angular momentum in pseudopotentials (lmaxx) =  4
     file Si.SCAN.UPF: wavefunction(s)  0D renormalized

     IMPORTANT: XC functional enforced from input :
     Exchange-correlation= SCAN
                           (   0   0   0   0   0 263 267)
     Any further DFT definition will be discarded
     Please, verify this is what you really want


     R & G space division:  proc/nbgrp/npool/nimage =       2
     Subspace diagonalization in iterative solution of the eigenvalue problem:
     a serial algorithm will be used


     Parallelization info
     --------------------
     sticks:   dense  smooth     PW     G-vecs:    dense   smooth      PW
     Min         579     579    174                13113    13113    2139
     Max         580     580    175                13116    13116    2140
     Sum        1159    1159    349                26229    26229    4279

     Using Slab Decomposition



     bravais-lattice index     =            2
     lattice parameter (alat)  =      10.2620  a.u.
     unit-cell volume          =     270.1693 (a.u.)^3
     number of atoms/cell      =            2
     number of atomic types    =            1
     number of electrons       =         8.00
     number of Kohn-Sham states=            5
     kinetic-energy cutoff     =      80.0000  Ry
     charge density cutoff     =     320.0000  Ry
     scf convergence threshold =      1.0E-10
     mixing beta               =       0.7000
     number of iterations used =            8  plain     mixing
     Exchange-correlation= SCAN
                           (   0   0   0   0   0 263 267)

     celldm(1)=  10.262000  celldm(2)=   0.000000  celldm(3)=   0.000000
     celldm(4)=   0.000000  celldm(5)=   0.000000  celldm(6)=   0.000000

     crystal axes: (cart. coord. in units of alat)
               a(1) = (  -0.500000   0.000000   0.500000 )  
               a(2) = (   0.000000   0.500000   0.500000 )  
               a(3) = (  -0.500000   0.500000   0.000000 )  

     reciprocal axes: (cart. coord. in units 2 pi/alat)
               b(1) = ( -1.000000 -1.000000  1.000000 )  
               b(2) = (  1.000000  1.000000  1.000000 )  
               b(3) = ( -1.000000  1.000000 -1.000000 )  


     PseudoPot. # 1 for Si read from file:
     ../../pseudo/Si.SCAN.UPF
     MD5 check sum: 2430c4f934950df6e08184ea7032f354
     Pseudo is Norm-conserving, Zval =  4.0
     Generated by new atomic code, or converted to UPF format
     Using radial grid of 1475 points,  2 beta functions with: 
                l(1) =   0
                l(2) =   1

     atomic species   valence    mass     pseudopotential
        Si             4.00    28.08600     Si( 1.00)

     48 Sym. Ops., with inversion, found (24 have fractional translation)


                                    s                        frac. trans.

      isym =  1     identity                                     

 cryst.   s( 1) = (     1          0          0      )
                  (     0          1          0      )
                  (     0          0          1      )

 cart.    s( 1) = (  1.0000000  0.0000000  0.0000000 )
                  (  0.0000000  1.0000000  0.0000000 )
                  (  0.0000000  0.0000000  1.0000000 )


      isym =  2     180 deg rotation - cart. axis [0,0,1]        

 cryst.   s( 2) = (     0          1         -1      )
                  (     1          0         -1      )
                  (     0          0         -1      )

 cart.    s( 2) = ( -1.0000000  0.0000000  0.0000000 )
                  (  0.0000000 -1.0000000  0.0000000 )
                  (  0.0000000  0.0000000  1.0000000 )


      isym =  3     180 deg rotation - cart. axis [0,1,0]        

 cryst.   s( 3) = (    -1          0          0      )
                  (    -1          0          1      )
                  (    -1          1          0      )

 cart.    s( 3) = ( -1.0000000  0.0000000  0.0000000 )
                  (  0.0000000  1.0000000  0.0000000 )
                  (  0.0000000  0.0000000 -1.0000000 )


      isym =  4     180 deg rotation - cart. axis [1,0,0]        

 cryst.   s( 4) = (     0         -1          1      )
                  (     0         -1          0      )
                  (     1         -1          0      )

 cart.    s( 4) = (  1.0000000  0.0000000  0.0000000 )
                  (  0.0000000 -1.0000000  0.0000000 )
                  (  0.0000000  0.0000000 -1.0000000 )


      isym =  5     180 deg rotation - cart. axis [1,1,0]        

 cryst.   s( 5) = (     0         -1          0      )    f =(  0.2500000 )
                  (    -1          0          0      )       (  0.2500000 )
                  (     0          0         -1      )       (  0.2500000 )

 cart.    s( 5) = (  0.0000000  1.0000000  0.0000000 )    f =( -0.2500000 )
                  (  1.0000000  0.0000000  0.0000000 )       (  0.2500000 )
                  (  0.0000000  0.0000000 -1.0000000 )       (  0.2500000 )


      isym =  6     180 deg rotation - cart. axis [1,-1,0]       

 cryst.   s( 6) = (    -1          0          1      )    f =(  0.2500000 )
                  (     0         -1          1      )       (  0.2500000 )
                  (     0          0          1      )       (  0.2500000 )

 cart.    s( 6) = (  0.0000000 -1.0000000  0.0000000 )    f =( -0.2500000 )
                  ( -1.0000000  0.0000000  0.0000000 )       (  0.2500000 )
                  (  0.0000000  0.0000000 -1.0000000 )       (  0.2500000 )


      isym =  7      90 deg rotation - cart. axis [0,0,-1]       

 cryst.   s( 7) = (     0          1          0      )    f =(  0.2500000 )
                  (     0          1         -1      )       (  0.2500000 )
                  (    -1          1          0      )       (  0.2500000 )

 cart.    s( 7) = (  0.0000000  1.0000000  0.0000000 )    f =( -0.2500000 )
                  ( -1.0000000  0.0000000  0.0000000 )       (  0.2500000 )
                  (  0.0000000  0.0000000  1.0000000 )       (  0.2500000 )


      isym =  8      90 deg rotation - cart. axis [0,0,1]        

 cryst.   s( 8) = (     1          0         -1      )    f =(  0.2500000 )
                  (     1          0          0      )       (  0.2500000 )
                  (     1         -1          0      )       (  0.2500000 )

 cart.    s( 8) = (  0.0000000 -1.0000000  0.0000000 )    f =( -0.2500000 )
                  (  1.0000000  0.0000000  0.0000000 )       (  0.2500000 )
                  (  0.0000000  0.0000000  1.0000000 )       (  0.2500000 )


      isym =  9     180 deg rotation - cart. axis [1,0,1]        

 cryst.   s( 9) = (    -1          0          0      )    f =(  0.2500000 )
                  (     0          0         -1      )       (  0.2500000 )
                  (     0         -1          0      )       (  0.2500000 )

 cart.    s( 9) = (  0.0000000  0.0000000  1.0000000 )    f =( -0.2500000 )
                  (  0.0000000 -1.0000000  0.0000000 )       (  0.2500000 )
                  (  1.0000000  0.0000000  0.0000000 )       (  0.2500000 )


      isym = 10     180 deg rotation - cart. axis [-1,0,1]       

 cryst.   s(10) = (     1          0          0      )    f =(  0.2500000 )
                  (     1         -1          0      )       (  0.2500000 )
                  (     1          0         -1      )       (  0.2500000 )

 cart.    s(10) = (  0.0000000  0.0000000 -1.0000000 )    f =( -0.2500000 )
                  (  0.0000000 -1.0000000  0.0000000 )       (  0.2500000 )
                  ( -1.0000000  0.0000000  0.0000000 )       (  0.2500000 )


      isym = 11      90 deg rotation - cart. axis [0,1,0]        

 cryst.   s(11) = (     0          1         -1      )    f =(  0.2500000 )
                  (    -1          1          0      )       (  0.2500000 )
                  (     0          1          0      )       (  0.2500000 )

 cart.    s(11) = (  0.0000000  0.0000000  1.0000000 )    f =( -0.2500000 )
                  (  0.0000000  1.0000000  0.0000000 )       (  0.2500000 )
                  ( -1.0000000  0.0000000  0.0000000 )       (  0.2500000 )


      isym = 12      90 deg rotation - cart. axis [0,-1,0]       

 cryst.   s(12) = (     0         -1          1      )    f =(  0.2500000 )
                  (     0          0          1      )       (  0.2500000 )
                  (    -1          0          1      )       (  0.2500000 )

 cart.    s(12) = (  0.0000000  0.0000000 -1.0000000 )    f =( -0.2500000 )
                  (  0.0000000  1.0000000  0.0000000 )       (  0.2500000 )
                  (  1.0000000  0.0000000  0.0000000 )       (  0.2500000 )


      isym = 13     180 deg rotation - cart. axis [0,1,1]        

 cryst.   s(13) = (    -1          1          0      )    f =(  0.2500000 )
                  (     0          1          0      )       (  0.2500000 )
                  (     0          1         -1      )       (  0.2500000 )

 cart.    s(13) = ( -1.0000000  0.0000000  0.0000000 )    f =( -0.2500000 )
                  (  0.0000000  0.0000000  1.0000000 )       (  0.2500000 )
                  (  0.0000000  1.0000000  0.0000000 )       (  0.2500000 )


      isym = 14     180 deg rotation - cart. axis [0,1,-1]       

 cryst.   s(14) = (     0          0         -1      )    f =(  0.2500000 )
                  (     0         -1          0      )       (  0.2500000 )
                  (    -1          0          0      )       (  0.2500000 )

 cart.    s(14) = ( -1.0000000  0.0000000  0.0000000 )    f =( -0.2500000 )
                  (  0.0000000  0.0000000 -1.0000000 )       (  0.2500000 )
                  (  0.0000000 -1.0000000  0.0000000 )       (  0.2500000 )


      isym = 15      90 deg rotation - cart. axis [-1,0,0]       

 cryst.   s(15) = (     0          0          1      )    f =(  0.2500000 )
                  (    -1          0          1      )       (  0.2500000 )
                  (     0         -1          1      )       (  0.2500000 )

 cart.    s(15) = (  1.0000000  0.0000000  0.0000000 )    f =( -0.2500000 )
                  (  0.0000000  0.0000000  1.0000000 )       (  0.2500000 )
                  (  0.0000000 -1.0000000  0.0000000 )       (  0.2500000 )


      isym = 16      90 deg rotation - cart. axis [1,0,0]        

 cryst.   s(16) = (     1         -1          0      )    f =(  0.2500000 )
                  (     1          0         -1      )       (  0.2500000 )
                  (     1          0          0      )       (  0.2500000 )

 cart.    s(16) = (  1.0000000  0.0000000  0.0000000 )    f =( -0.2500000 )
                  (  0.0000000  0.0000000 -1.0000000 )       (  0.2500000 )
                  (  0.0000000  1.0000000  0.0000000 )       (  0.2500000 )


      isym = 17     120 deg rotation - cart. axis [-1,-1,-1]     

 cryst.   s(17) = (    -1          0          1      )
                  (    -1          1          0      )
                  (    -1          0          0      )

 cart.    s(17) = (  0.0000000  1.0000000  0.0000000 )
                  (  0.0000000  0.0000000  1.0000000 )
                  (  1.0000000  0.0000000  0.0000000 )


      isym = 18     120 deg rotation - cart. axis [-1,1,1]       

 cryst.   s(18) = (     0          1          0      )
                  (     0          0          1      )
                  (     1          0          0      )

 cart.    s(18) = (  0.0000000 -1.0000000  0.0000000 )
                  (  0.0000000  0.0000000  1.0000000 )
                  ( -1.0000000  0.0000000  0.0000000 )


      isym = 19     120 deg rotation - cart. axis [1,1,-1]       

 cryst.   s(19) = (     1          0         -1      )
                  (     0          0         -1      )
                  (     0          1         -1      )

 cart.    s(19) = (  0.0000000  1.0000000  0.0000000 )
                  (  0.0000000  0.0000000 -1.0000000 )
                  ( -1.0000000  0.0000000  0.0000000 )


      isym = 20     120 deg rotation - cart. axis [1,-1,1]       

 cryst.   s(20) = (     0         -1          0      )
                  (     1         -1          0      )
                  (     0         -1          1      )

 cart.    s(20) = (  0.0000000 -1.0000000  0.0000000 )
                  (  0.0000000  0.0000000 -1.0000000 )
                  (  1.0000000  0.0000000  0.0000000 )


      isym = 21     120 deg rotation - cart. axis [1,1,1]        

 cryst.   s(21) = (     0          0         -1      )
                  (     0          1         -1      )
                  (     1          0         -1      )

 cart.    s(21) = (  0.0000000  0.0000000  1.0000000 )
                  (  1.0000000  0.0000000  0.0000000 )
                  (  0.0000000  1.0000000  0.0000000 )


      isym = 22     120 deg rotation - cart. axis [-1,1,-1]      

 cryst.   s(22) = (    -1          1          0      )
                  (    -1          0          0      )
                  (    -1          0          1      )

 cart.    s(22) = (  0.0000000  0.0000000  1.0000000 )
                  ( -1.0000000  0.0000000  0.0000000 )
                  (  0.0000000 -1.0000000  0.0000000 )


      isym = 23     120 deg rotation - cart. axis [1,-1,-1]      

 cryst.   s(23) = (     0          0          1      )
                  (     1          0          0      )
                  (     0          1          0      )

 cart.    s(23) = (  0.0000000  0.0000000 -1.0000000 )
                  ( -1.0000000  0.0000000  0.0000000 )
                  (  0.0000000  1.0000000  0.0000000 )


      isym = 24     120 deg rotation - cart. axis [-1,-1,1]      

 cryst.   s(24) = (     1         -1          0      )
                  (     0         -1          1      )
                  (     0         -1          0      )

 cart.    s(24) = (  0.0000000  0.0000000 -1.0000000 )
                  (  1.0000000  0.0000000  0.0000000 )
                  (  0.0000000 -1.0000000  0.0000000 )


      isym = 25     inversion                                    

 cryst.   s(25) = (    -1          0          0      )    f =(  0.2500000 )
                  (     0         -1          0      )       (  0.2500000 )
                  (     0          0         -1      )       (  0.2500000 )

 cart.    s(25) = ( -1.0000000  0.0000000  0.0000000 )    f =( -0.2500000 )
                  (  0.0000000 -1.0000000  0.0000000 )       (  0.2500000 )
                  (  0.0000000  0.0000000 -1.0000000 )       (  0.2500000 )


      isym = 26     inv. 180 deg rotation - cart. axis [0,0,1]   

 cryst.   s(26) = (     0         -1          1      )    f =(  0.2500000 )
                  (    -1          0          1      )       (  0.2500000 )
                  (     0          0          1      )       (  0.2500000 )

 cart.    s(26) = (  1.0000000  0.0000000  0.0000000 )    f =( -0.2500000 )
                  (  0.0000000  1.0000000  0.0000000 )       (  0.2500000 )
                  (  0.0000000  0.0000000 -1.0000000 )       (  0.2500000 )


      isym = 27     inv. 180 deg rotation - cart. axis [0,1,0]   

 cryst.   s(27) = (     1          0          0      )    f =(  0.2500000 )
                  (     1          0         -1      )       (  0.2500000 )
                  (     1         -1          0      )       (  0.2500000 )

 cart.    s(27) = (  1.0000000  0.0000000  0.0000000 )    f =( -0.2500000 )
                  (  0.0000000 -1.0000000  0.0000000 )       (  0.2500000 )
                  (  0.0000000  0.0000000  1.0000000 )       (  0.2500000 )


      isym = 28     inv. 180 deg rotation - cart. axis [1,0,0]   

 cryst.   s(28) = (     0          1         -1      )    f =(  0.2500000 )
                  (     0          1          0      )       (  0.2500000 )
                  (    -1          1          0      )       (  0.2500000 )

 cart.    s(28) = ( -1.0000000  0.0000000  0.0000000 )    f =( -0.2500000 )
                  (  0.0000000  1.0000000  0.0000000 )       (  0.2500000 )
                  (  0.0000000  0.0000000  1.0000000 )       (  0.2500000 )


      isym = 29     inv. 180 deg rotation - cart. axis [1,1,0]   

 cryst.   s(29) = (     0          1          0      )
                  (     1          0          0      )
                  (     0          0          1      )

 cart.    s(29) = (  0.0000000 -1.0000000  0.0000000 )
                  ( -1.0000000  0.0000000  0.0000000 )
                  (  0.0000000  0.0000000  1.0000000 )


      isym = 30     inv. 180 deg rotation - cart. axis [1,-1,0]  

 cryst.   s(30) = (     1          0         -1      )
                  (     0          1         -1      )
                  (     0          0         -1      )

 cart.    s(30) = (  0.0000000  1.0000000  0.0000000 )
                  (  1.0000000  0.0000000  0.0000000 )
                  (  0.0000000  0.0000000  1.0000000 )


      isym = 31     inv.  90 deg rotation - cart. axis [0,0,-1]  

 cryst.   s(31) = (     0         -1          0      )
                  (     0         -1          1      )
                  (     1         -1          0      )

 cart.    s(31) = (  0.0000000 -1.0000000  0.0000000 )
                  (  1.0000000  0.0000000  0.0000000 )
                  (  0.0000000  0.0000000 -1.0000000 )


      isym = 32     inv.  90 deg rotation - cart. axis [0,0,1]   

 cryst.   s(32) = (    -1          0          1      )
                  (    -1          0          0      )
                  (    -1          1          0      )

 cart.    s(32) = (  0.0000000  1.0000000  0.0000000 )
                  ( -1.0000000  0.0000000  0.0000000 )
                  (  0.0000000  0.0000000 -1.0000000 )


      isym = 33     inv. 180 deg rotation - cart. axis [1,0,1]   

 cryst.   s(33) = (     1          0          0      )
                  (     0          0          1      )
                  (     0          1          0      )

 cart.    s(33) = (  0.0000000  0.0000000 -1.0000000 )
                  (  0.0000000  1.0000000  0.0000000 )
                  ( -1.0000000  0.0000000  0.0000000 )


      isym = 34     inv. 180 deg rotation - cart. axis [-1,0,1]  

 cryst.   s(34) = (    -1          0          0      )
                  (    -1          1          0      )
                  (    -1          0          1      )

 cart.    s(34) = (  0.0000000  0.0000000  1.0000000 )
                  (  0.0000000  1.0000000  0.0000000 )
                  (  1.0000000  0.0000000  0.0000000 )


      isym = 35     inv.  90 deg rotation - cart. axis [0,1,0]   

 cryst.   s(35) = (     0         -1          1      )
                  (     1         -1          0      )
                  (     0         -1          0      )

 cart.    s(35) = (  0.0000000  0.0000000 -1.0000000 )
                  (  0.0000000 -1.0000000  0.0000000 )
                  (  1.0000000  0.0000000  0.0000000 )


      isym = 36     inv.  90 deg rotation - cart. axis [0,-1,0]  

 cryst.   s(36) = (     0          1         -1      )
                  (     0          0         -1      )
                  (     1          0         -1      )

 cart.    s(36) = (  0.0000000  0.0000000  1.0000000 )
                  (  0.0000000 -1.0000000  0.0000000 )
                  ( -1.0000000  0.0000000  0.0000000 )


      isym = 37     inv. 180 deg rotation - cart. axis [0,1,1]   

 cryst.   s(37) = (     1         -1          0      )
                  (     0         -1          0      )
                  (     0         -1          1      )

 cart.    s(37) = (  1.0000000  0.0000000  0.0000000 )
                  (  0.0000000  0.0000000 -1.0000000 )
                  (  0.0000000 -1.0000000  0.0000000 )


      isym = 38     inv. 180 deg rotation - cart. axis [0,1,-1]  

 cryst.   s(38) = (     0          0          1      )
                  (     0          1          0      )
                  (     1          0          0      )

 cart.    s(38) = (  1.0000000  0.0000000  0.0000000 )
                  (  0.0000000  0.0000000  1.0000000 )
                  (  0.0000000  1.0000000  0.0000000 )


      isym = 39     inv.  90 deg rotation - cart. axis [-1,0,0]  

 cryst.   s(39) = (     0          0         -1      )
                  (     1          0         -1      )
                  (     0          1         -1      )

 cart.    s(39) = ( -1.0000000  0.0000000  0.0000000 )
                  (  0.0000000  0.0000000 -1.0000000 )
                  (  0.0000000  1.0000000  0.0000000 )


      isym = 40     inv.  90 deg rotation - cart. axis [1,0,0]   

 cryst.   s(40) = (    -1          1          0      )
                  (    -1          0          1      )
                  (    -1          0          0      )

 cart.    s(40) = ( -1.0000000  0.0000000  0.0000000 )
                  (  0.0000000  0.0000000  1.0000000 )
                  (  0.0000000 -1.0000000  0.0000000 )


      isym = 41     inv. 120 deg rotation - cart. axis [-1,-1,-1]

 cryst.   s(41) = (     1          0         -1      )    f =(  0.2500000 )
                  (     1         -1          0      )       (  0.2500000 )
                  (     1          0          0      )       (  0.2500000 )

 cart.    s(41) = (  0.0000000 -1.0000000  0.0000000 )    f =( -0.2500000 )
                  (  0.0000000  0.0000000 -1.0000000 )       (  0.2500000 )
                  ( -1.0000000  0.0000000  0.0000000 )       (  0.2500000 )


      isym = 42     inv. 120 deg rotation - cart. axis [-1,1,1]  

 cryst.   s(42) = (     0         -1          0      )    f =(  0.2500000 )
                  (     0          0         -1      )       (  0.2500000 )
                  (    -1          0          0      )       (  0.2500000 )

 cart.    s(42) = (  0.0000000  1.0000000  0.0000000 )    f =( -0.2500000 )
                  (  0.0000000  0.0000000 -1.0000000 )       (  0.2500000 )
                  (  1.0000000  0.0000000  0.0000000 )       (  0.2500000 )


      isym = 43     inv. 120 deg rotation - cart. axis [1,1,-1]  

 cryst.   s(43) = (    -1          0          1      )    f =(  0.2500000 )
                  (     0          0          1      )       (  0.2500000 )
                  (     0         -1          1      )       (  0.2500000 )

 cart.    s(43) = (  0.0000000 -1.0000000  0.0000000 )    f =( -0.2500000 )
                  (  0.0000000  0.0000000  1.0000000 )       (  0.2500000 )
                  (  1.0000000  0.0000000  0.0000000 )       (  0.2500000 )


      isym = 44     inv. 120 deg rotation - cart. axis [1,-1,1]  

 cryst.   s(44) = (     0          1          0      )    f =(  0.2500000 )
                  (    -1          1          0      )       (  0.2500000 )
                  (     0          1         -1      )       (  0.2500000 )

 cart.    s(44) = (  0.0000000  1.0000000  0.0000000 )    f =( -0.2500000 )
                  (  0.0000000  0.0000000  1.0000000 )       (  0.2500000 )
                  ( -1.0000000  0.0000000  0.0000000 )       (  0.2500000 )


      isym = 45     inv. 120 deg rotation - cart. axis [1,1,1]   

 cryst.   s(45) = (     0          0          1      )    f =(  0.2500000 )
                  (     0         -1          1      )       (  0.2500000 )
                  (    -1          0          1      )       (  0.2500000 )

 cart.    s(45) = (  0.0000000  0.0000000 -1.0000000 )    f =( -0.2500000 )
                  ( -1.0000000  0.0000000  0.0000000 )       (  0.2500000 )
                  (  0.0000000 -1.0000000  0.0000000 )       (  0.2500000 )


      isym = 46     inv. 120 deg rotation - cart. axis [-1,1,-1] 

 cryst.   s(46) = (     1         -1          0      )    f =(  0.2500000 )
                  (     1          0          0      )       (  0.2500000 )
                  (     1          0         -1      )       (  0.2500000 )

 cart.    s(46) = (  0.0000000  0.0000000 -1.0000000 )    f =( -0.2500000 )
                  (  1.0000000  0.0000000  0.0000000 )       (  0.2500000 )
                  (  0.0000000  1.0000000  0.0000000 )       (  0.2500000 )


      isym = 47     inv. 120 deg rotation - cart. axis [1,-1,-1] 

 cryst.   s(47) = (     0          0         -1      )    f =(  0.2500000 )
                  (    -1          0          0      )       (  0.2500000 )
                  (     0         -1          0      )       (  0.2500000 )

 cart.    s(47) = (  0.0000000  0.0000000  1.0000000 )    f =( -0.2500000 )
                  (  1.0000000  0.0000000  0.0000000 )       (  0.2500000 )
                  (  0.0000000 -1.0000000  0.0000000 )       (  0.2500000 )


      isym = 48     inv. 120 deg rotation - cart. axis [-1,-1,1] 

 cryst.   s(48) = (    -1          1          0      )    f =(  0.2500000 )
                  (     0          1         -1      )       (  0.2500000 )
                  (     0          1          0      )       (  0.2500000 )

 cart.    s(48) = (  0.0000000  0.0000000  1.0000000 )    f =( -0.2500000 )
                  ( -1.0000000  0.0000000  0.0000000 )       (  0.2500000 )
                  (  0.0000000  1.0000000  0.0000000 )       (  0.2500000 )


     point group O_h (m-3m) 
     there are 10 classes
     the character table:

       E     8C3   3C2   6C4   6C2'  i     8S6   3s_h  6S4   6s_d 
A_1g   1.00  1.00  1.00  1.00  1.00  1.00  1.00  1.00  1.00  1.00
A_2g   1.00  1.00  1.00 -1.00 -1.00  1.00  1.00  1.00 -1.00 -1.00
E_g    2.00 -1.00  2.00  0.00  0.00  2.00 -1.00  2.00  0.00  0.00
T_1g   3.00  0.00 -1.00  1.00 -1.00  3.00  0.00 -1.00  1.00 -1.00
T_2g   3.00  0.00 -1.00 -1.00  1.00  3.00  0.00 -1.00 -1.00  1.00
A_1u   1.00  1.00  1.00  1.00  1.00 -1.00 -1.00 -1.00 -1.00 -1.00
A_2u   1.00  1.00  1.00 -1.00 -1.00 -1.00 -1.00 -1.00  1.00  1.00
E_u    2.00 -1.00  2.00  0.00  0.00 -2.00  1.00 -2.00  0.00  0.00
T_1u   3.00  0.00 -1.00  1.00 -1.00 -3.00  0.00  1.00 -1.00  1.00
T_2u   3.00  0.00 -1.00 -1.00  1.00 -3.00  0.00  1.00  1.00 -1.00

     the symmetry operations in each class and the name of the first element:

     E        1
          identity                                               
     8C3     17   19   20   18   24   21   22   23
          120 deg rotation - cart. axis [-1,-1,-1]               
     3C2      2    4    3
          180 deg rotation - cart. axis [0,0,1]                  
     6C4      7    8   15   16   12   11
           90 deg rotation - cart. axis [0,0,-1]                 
     6C2'     5    6   14   13   10    9
          180 deg rotation - cart. axis [1,1,0]                  
     i       25
          inversion                                              
     8S6     41   43   44   42   48   45   46   47
          inv. 120 deg rotation - cart. axis [-1,-1,-1]          
     3s_h    26   28   27
          inv. 180 deg rotation - cart. axis [0,0,1]             
     6S4     31   32   39   40   36   35
          inv.  90 deg rotation - cart. axis [0,0,-1]            
     6s_d    29   30   38   37   34   33
          inv. 180 deg rotation - cart. axis [1,1,0]             

   Cartesian axes

     site n.     atom                  positions (alat units)
         1           Si  tau(   1) = (   0.0000000   0.0000000   0.0000000  )
         2           Si  tau(   2) = (   0.2500000   0.2500000   0.2500000  )

   Crystallographic axes

     site n.     atom                  positions (cryst. coord.)
         1           Si  tau(   1) = (  0.0000000  0.0000000  0.0000000  )
         2           Si  tau(   2) = ( -0.2500000  0.7500000 -0.2500000  )

     number of k points=    72
                       cart. coord. in units 2pi/alat
        k(    1) = (   0.0000000   0.0000000   0.0000000), wk =   0.0011574
        k(    2) = (  -0.0833333   0.0833333  -0.0833333), wk =   0.0092593
        k(    3) = (  -0.1666667   0.1666667  -0.1666667), wk =   0.0092593
        k(    4) = (  -0.2500000   0.2500000  -0.2500000), wk =   0.0092593
        k(    5) = (  -0.3333333   0.3333333  -0.3333333), wk =   0.0092593
        k(    6) = (  -0.4166667   0.4166667  -0.4166667), wk =   0.0092593
        k(    7) = (   0.5000000  -0.5000000   0.5000000), wk =   0.0046296
        k(    8) = (   0.0000000   0.1666667   0.0000000), wk =   0.0069444
        k(    9) = (  -0.0833333   0.2500000  -0.0833333), wk =   0.0277778
        k(   10) = (  -0.1666667   0.3333333  -0.1666667), wk =   0.0277778
        k(   11) = (  -0.2500000   0.4166667  -0.2500000), wk =   0.0277778
        k(   12) = (  -0.3333333   0.5000000  -0.3333333), wk =   0.0277778
        k(   13) = (   0.5833333  -0.4166667   0.5833333), wk =   0.0277778
        k(   14) = (   0.5000000  -0.3333333   0.5000000), wk =   0.0277778
        k(   15) = (   0.4166667  -0.2500000   0.4166667), wk =   0.0277778
        k(   16) = (   0.3333333  -0.1666667   0.3333333), wk =   0.0277778
        k(   17) = (   0.2500000  -0.0833333   0.2500000), wk =   0.0277778
        k(   18) = (   0.1666667  -0.0000000   0.1666667), wk =   0.0138889
        k(   19) = (   0.0000000   0.3333333   0.0000000), wk =   0.0069444
        k(   20) = (  -0.0833333   0.4166667  -0.0833333), wk =   0.0277778
        k(   21) = (  -0.1666667   0.5000000  -0.1666667), wk =   0.0277778
        k(   22) = (  -0.2500000   0.5833333  -0.2500000), wk =   0.0277778
        k(   23) = (   0.6666667  -0.3333333   0.6666667), wk =   0.0277778
        k(   24) = (   0.5833333  -0.2500000   0.5833333), wk =   0.0277778
        k(   25) = (   0.5000000  -0.1666667   0.5000000), wk =   0.0277778
        k(   26) = (   0.4166667  -0.0833333   0.4166667), wk =   0.0277778
        k(   27) = (   0.3333333   0.0000000   0.3333333), wk =   0.0138889
        k(   28) = (   0.0000000   0.5000000   0.0000000), wk =   0.0069444
        k(   29) = (  -0.0833333   0.5833333  -0.0833333), wk =   0.0277778
        k(   30) = (  -0.1666667   0.6666667  -0.1666667), wk =   0.0277778
        k(   31) = (   0.7500000  -0.2500000   0.7500000), wk =   0.0277778
        k(   32) = (   0.6666667  -0.1666667   0.6666667), wk =   0.0277778
        k(   33) = (   0.5833333  -0.0833333   0.5833333), wk =   0.0277778
        k(   34) = (   0.5000000   0.0000000   0.5000000), wk =   0.0138889
        k(   35) = (   0.0000000   0.6666667   0.0000000), wk =   0.0069444
        k(   36) = (  -0.0833333   0.7500000  -0.0833333), wk =   0.0277778
        k(   37) = (   0.8333333  -0.1666667   0.8333333), wk =   0.0277778
        k(   38) = (   0.7500000  -0.0833333   0.7500000), wk =   0.0277778
        k(   39) = (   0.6666667  -0.0000000   0.6666667), wk =   0.0138889
        k(   40) = (   0.0000000   0.8333333   0.0000000), wk =   0.0069444
        k(   41) = (   0.9166667  -0.0833333   0.9166667), wk =   0.0277778
        k(   42) = (   0.8333333   0.0000000   0.8333333), wk =   0.0138889
        k(   43) = (   0.0000000  -1.0000000   0.0000000), wk =   0.0034722
        k(   44) = (  -0.1666667   0.3333333   0.0000000), wk =   0.0277778
        k(   45) = (  -0.2500000   0.4166667  -0.0833333), wk =   0.0555556
        k(   46) = (  -0.3333333   0.5000000  -0.1666667), wk =   0.0555556
        k(   47) = (   0.5833333  -0.4166667   0.7500000), wk =   0.0555556
        k(   48) = (   0.5000000  -0.3333333   0.6666667), wk =   0.0277778
        k(   49) = (  -0.1666667   0.5000000   0.0000000), wk =   0.0277778
        k(   50) = (  -0.2500000   0.5833333  -0.0833333), wk =   0.0555556
        k(   51) = (   0.6666667  -0.3333333   0.8333333), wk =   0.0555556
        k(   52) = (   0.5833333  -0.2500000   0.7500000), wk =   0.0555556
        k(   53) = (   0.5000000  -0.1666667   0.6666667), wk =   0.0555556
        k(   54) = (   0.4166667  -0.0833333   0.5833333), wk =   0.0555556
        k(   55) = (   0.3333333   0.0000000   0.5000000), wk =   0.0277778
        k(   56) = (  -0.1666667   0.6666667  -0.0000000), wk =   0.0277778
        k(   57) = (   0.7500000  -0.2500000   0.9166667), wk =   0.0555556
        k(   58) = (   0.6666667  -0.1666667   0.8333333), wk =   0.0555556
        k(   59) = (   0.5833333  -0.0833333   0.7500000), wk =   0.0555556
        k(   60) = (   0.5000000   0.0000000   0.6666667), wk =   0.0277778
        k(   61) = (   0.8333333  -0.1666667   1.0000000), wk =   0.0277778
        k(   62) = (   0.7500000  -0.0833333   0.9166667), wk =   0.0555556
        k(   63) = (   0.6666667   0.0000000   0.8333333), wk =   0.0277778
        k(   64) = (  -0.1666667  -1.0000000  -0.0000000), wk =   0.0138889
        k(   65) = (   0.6666667  -0.3333333   1.0000000), wk =   0.0277778
        k(   66) = (   0.5833333  -0.2500000   0.9166667), wk =   0.0555556
        k(   67) = (   0.5000000  -0.1666667   0.8333333), wk =   0.0277778
        k(   68) = (   0.6666667  -0.1666667   1.0000000), wk =   0.0277778
        k(   69) = (   0.5833333  -0.0833333   0.9166667), wk =   0.0555556
        k(   70) = (   0.5000000   0.0000000   0.8333333), wk =   0.0277778
        k(   71) = (  -0.3333333  -1.0000000   0.0000000), wk =   0.0138889
        k(   72) = (  -0.5000000  -1.0000000   0.0000000), wk =   0.0069444

                       cryst. coord.
        k(    1) = (   0.0000000   0.0000000   0.0000000), wk =   0.0011574
        k(    2) = (   0.0000000   0.0000000   0.0833333), wk =   0.0092593
        k(    3) = (   0.0000000   0.0000000   0.1666667), wk =   0.0092593
        k(    4) = (   0.0000000   0.0000000   0.2500000), wk =   0.0092593
        k(    5) = (   0.0000000   0.0000000   0.3333333), wk =   0.0092593
        k(    6) = (   0.0000000   0.0000000   0.4166667), wk =   0.0092593
        k(    7) = (   0.0000000   0.0000000  -0.5000000), wk =   0.0046296
        k(    8) = (   0.0000000   0.0833333   0.0833333), wk =   0.0069444
        k(    9) = (   0.0000000   0.0833333   0.1666667), wk =   0.0277778
        k(   10) = (   0.0000000   0.0833333   0.2500000), wk =   0.0277778
        k(   11) = (   0.0000000   0.0833333   0.3333333), wk =   0.0277778
        k(   12) = (   0.0000000   0.0833333   0.4166667), wk =   0.0277778
        k(   13) = (   0.0000000   0.0833333  -0.5000000), wk =   0.0277778
        k(   14) = (   0.0000000   0.0833333  -0.4166667), wk =   0.0277778
        k(   15) = (   0.0000000   0.0833333  -0.3333333), wk =   0.0277778
        k(   16) = (   0.0000000   0.0833333  -0.2500000), wk =   0.0277778
        k(   17) = (   0.0000000   0.0833333  -0.1666667), wk =   0.0277778
        k(   18) = (   0.0000000   0.0833333  -0.0833333), wk =   0.0138889
        k(   19) = (   0.0000000   0.1666667   0.1666667), wk =   0.0069444
        k(   20) = (   0.0000000   0.1666667   0.2500000), wk =   0.0277778
        k(   21) = (   0.0000000   0.1666667   0.3333333), wk =   0.0277778
        k(   22) = (   0.0000000   0.1666667   0.4166667), wk =   0.0277778
        k(   23) = (   0.0000000   0.1666667  -0.5000000), wk =   0.0277778
        k(   24) = (   0.0000000   0.1666667  -0.4166667), wk =   0.0277778
        k(   25) = (   0.0000000   0.1666667  -0.3333333), wk =   0.0277778
        k(   26) = (   0.0000000   0.1666667  -0.2500000), wk =   0.0277778
        k(   27) = (   0.0000000   0.1666667  -0.1666667), wk =   0.0138889
        k(   28) = (   0.0000000   0.2500000   0.2500000), wk =   0.0069444
        k(   29) = (   0.0000000   0.2500000   0.3333333), wk =   0.0277778
        k(   30) = (   0.0000000   0.2500000   0.4166667), wk =   0.0277778
        k(   31) = (   0.0000000   0.2500000  -0.5000000), wk =   0.0277778
        k(   32) = (   0.0000000   0.2500000  -0.4166667), wk =   0.0277778
        k(   33) = (   0.0000000   0.2500000  -0.3333333), wk =   0.0277778
        k(   34) = (   0.0000000   0.2500000  -0.2500000), wk =   0.0138889
        k(   35) = (   0.0000000   0.3333333   0.3333333), wk =   0.0069444
        k(   36) = (   0.0000000   0.3333333   0.4166667), wk =   0.0277778
        k(   37) = (   0.0000000   0.3333333  -0.5000000), wk =   0.0277778
        k(   38) = (   0.0000000   0.3333333  -0.4166667), wk =   0.0277778
        k(   39) = (   0.0000000   0.3333333  -0.3333333), wk =   0.0138889
        k(   40) = (   0.0000000   0.4166667   0.4166667), wk =   0.0069444
        k(   41) = (   0.0000000   0.4166667  -0.5000000), wk =   0.0277778
        k(   42) = (   0.0000000   0.4166667  -0.4166667), wk =   0.0138889
        k(   43) = (   0.0000000  -0.5000000  -0.5000000), wk =   0.0034722
        k(   44) = (   0.0833333   0.1666667   0.2500000), wk =   0.0277778
        k(   45) = (   0.0833333   0.1666667   0.3333333), wk =   0.0555556
        k(   46) = (   0.0833333   0.1666667   0.4166667), wk =   0.0555556
        k(   47) = (   0.0833333   0.1666667  -0.5000000), wk =   0.0555556
        k(   48) = (   0.0833333   0.1666667  -0.4166667), wk =   0.0277778
        k(   49) = (   0.0833333   0.2500000   0.3333333), wk =   0.0277778
        k(   50) = (   0.0833333   0.2500000   0.4166667), wk =   0.0555556
        k(   51) = (   0.0833333   0.2500000  -0.5000000), wk =   0.0555556
        k(   52) = (   0.0833333   0.2500000  -0.4166667), wk =   0.0555556
        k(   53) = (   0.0833333   0.2500000  -0.3333333), wk =   0.0555556
        k(   54) = (   0.0833333   0.2500000  -0.2500000), wk =   0.0555556
        k(   55) = (   0.0833333   0.2500000  -0.1666667), wk =   0.0277778
        k(   56) = (   0.0833333   0.3333333   0.4166667), wk =   0.0277778
        k(   57) = (   0.0833333   0.3333333  -0.5000000), wk =   0.0555556
        k(   58) = (   0.0833333   0.3333333  -0.4166667), wk =   0.0555556
        k(   59) = (   0.0833333   0.3333333  -0.3333333), wk =   0.0555556
        k(   60) = (   0.0833333   0.3333333  -0.2500000), wk =   0.0277778
        k(   61) = (   0.0833333   0.4166667  -0.5000000), wk =   0.0277778
        k(   62) = (   0.0833333   0.4166667  -0.4166667), wk =   0.0555556
        k(   63) = (   0.0833333   0.4166667  -0.3333333), wk =   0.0277778
        k(   64) = (   0.0833333  -0.5000000  -0.4166667), wk =   0.0138889
        k(   65) = (   0.1666667   0.3333333  -0.5000000), wk =   0.0277778
        k(   66) = (   0.1666667   0.3333333  -0.4166667), wk =   0.0555556
        k(   67) = (   0.1666667   0.3333333  -0.3333333), wk =   0.0277778
        k(   68) = (   0.1666667   0.4166667  -0.4166667), wk =   0.0277778
        k(   69) = (   0.1666667   0.4166667  -0.3333333), wk =   0.0555556
        k(   70) = (   0.1666667   0.4166667  -0.2500000), wk =   0.0277778
        k(   71) = (   0.1666667  -0.5000000  -0.3333333), wk =   0.0138889
        k(   72) = (   0.2500000  -0.5000000  -0.2500000), wk =   0.0069444

     Dense  grid:    26229 G-vectors     FFT dimensions: (  48,  48,  48)

     Dynamical RAM for                 wfc:       0.12 MB

     Dynamical RAM for     wfc (w. buffer):       9.09 MB

     Dynamical RAM for           str. fact:       0.20 MB

     Dynamical RAM for           local pot:       0.00 MB

     Dynamical RAM for          nlocal pot:       0.20 MB

     Dynamical RAM for                qrad:       0.12 MB

     Dynamical RAM for          rho,v,vnew:       3.73 MB

     Dynamical RAM for               rhoin:       1.24 MB

     Dynamical RAM for            rho*nmix:       6.40 MB

     Dynamical RAM for           G-vectors:       0.85 MB

     Dynamical RAM for          h,s,v(r/c):       0.00 MB

     Dynamical RAM for          <psi|beta>:       0.00 MB

     Dynamical RAM for                 psi:       0.25 MB

     Dynamical RAM for                hpsi:       0.25 MB

     Dynamical RAM for      wfcinit/wfcrot:       0.90 MB

     Estimated static dynamical RAM per process >      18.37 MB

     Estimated max dynamical RAM per process >      25.68 MB

     Estimated total dynamical RAM >      51.35 MB

     WARNING: libxc functional with ID  263 depends
      on external parameters: check the user_guide of
      QE if you need to modify them or to check their
      default values.

     Initial potential from superposition of free atoms

     starting charge       7.9990, renormalised to       8.0000
     Starting wfcs are   18 randomized atomic wfcs

     total cpu time spent up to now is        5.1 secs

     Self-consistent Calculation

     iteration #  1     ecut=    80.00 Ry     beta= 0.70
     Davidson diagonalization with overlap

---- Real-time Memory Report at c_bands before calling an iterative solver
            46 MiB given to the printing process from OS
             0 MiB allocation reported by mallinfo(arena+hblkhd)
           193 MiB available memory on the node where the printing process lives
------------------
     ethr =  1.00E-02,  avg # of iterations =  2.3

     Threshold (ethr) on eigenvalues was too large:
     Diagonalizing with lowered threshold

     Davidson diagonalization with overlap

---- Real-time Memory Report at c_bands before calling an iterative solver
            48 MiB given to the printing process from OS
             0 MiB allocation reported by mallinfo(arena+hblkhd)
           211 MiB available memory on the node where the printing process lives
------------------
     ethr =  7.39E-04,  avg # of iterations =  1.5

     total cpu time spent up to now is       13.2 secs

     total energy              =     -15.74223672 Ry
     estimated scf accuracy    <       0.06300497 Ry

     iteration #  2     ecut=    80.00 Ry     beta= 0.70
     Davidson diagonalization with overlap

---- Real-time Memory Report at c_bands before calling an iterative solver
            59 MiB given to the printing process from OS
             0 MiB allocation reported by mallinfo(arena+hblkhd)
           168 MiB available memory on the node where the printing process lives
------------------
     ethr =  7.88E-04,  avg # of iterations =  1.8

     total cpu time spent up to now is        3.4 secs

     total energy              =     -15.74819617 Ry
     estimated scf accuracy    <       0.00814700 Ry

     iteration #  3     ecut=    80.00 Ry     beta= 0.70
     Davidson diagonalization with overlap

---- Real-time Memory Report at c_bands before calling an iterative solver
            60 MiB given to the printing process from OS
             0 MiB allocation reported by mallinfo(arena+hblkhd)
           175 MiB available memory on the node where the printing process lives
------------------
     ethr =  1.02E-04,  avg # of iterations =  2.1

     total cpu time spent up to now is        7.9 secs

     total energy              =     -15.74985070 Ry
     estimated scf accuracy    <       0.00020016 Ry

     iteration #  4     ecut=    80.00 Ry     beta= 0.70
     Davidson diagonalization with overlap

---- Real-time Memory Report at c_bands before calling an iterative solver
            61 MiB given to the printing process from OS
             0 MiB allocation reported by mallinfo(arena+hblkhd)
           196 MiB available memory on the node where the printing process lives
------------------
     ethr =  2.50E-06,  avg # of iterations =  4.4

     total cpu time spent up to now is       65.6 secs

     total energy              =     -15.74995353 Ry
     estimated scf accuracy    <       0.00002708 Ry

     iteration #  5     ecut=    80.00 Ry     beta= 0.70
     Davidson diagonalization with overlap

---- Real-time Memory Report at c_bands before calling an iterative solver
            62 MiB given to the printing process from OS
             0 MiB allocation reported by mallinfo(arena+hblkhd)
           194 MiB available memory on the node where the printing process lives
------------------
     ethr =  3.39E-07,  avg # of iterations =  2.1

     total cpu time spent up to now is       69.8 secs

     total energy              =     -15.74996217 Ry
     estimated scf accuracy    <       0.00000109 Ry

     iteration #  6     ecut=    80.00 Ry     beta= 0.70
     Davidson diagonalization with overlap

---- Real-time Memory Report at c_bands before calling an iterative solver
            63 MiB given to the printing process from OS
             0 MiB allocation reported by mallinfo(arena+hblkhd)
           214 MiB available memory on the node where the printing process lives
------------------
     ethr =  1.36E-08,  avg # of iterations =  2.8

     total cpu time spent up to now is       74.5 secs

     total energy              =     -15.74996308 Ry
     estimated scf accuracy    <       0.00000019 Ry

     iteration #  7     ecut=    80.00 Ry     beta= 0.70
     Davidson diagonalization with overlap

---- Real-time Memory Report at c_bands before calling an iterative solver
            63 MiB given to the printing process from OS
             0 MiB allocation reported by mallinfo(arena+hblkhd)
           191 MiB available memory on the node where the printing process lives
------------------
     ethr =  2.36E-09,  avg # of iterations =  2.2

     total cpu time spent up to now is       78.7 secs

     total energy              =     -15.74996325 Ry
     estimated scf accuracy    <          1.4E-09 Ry

     iteration #  8     ecut=    80.00 Ry     beta= 0.70
     Davidson diagonalization with overlap

---- Real-time Memory Report at c_bands before calling an iterative solver
            64 MiB given to the printing process from OS
             0 MiB allocation reported by mallinfo(arena+hblkhd)
           211 MiB available memory on the node where the printing process lives
------------------
     ethr =  1.79E-11,  avg # of iterations =  4.0

     total cpu time spent up to now is       68.6 secs

     End of self-consistent calculation

          k = 0.0000 0.0000 0.0000 (  3287 PWs)   bands (ev):

    -6.2904   6.0140   6.0140   6.0140   8.9719

     occupation numbers 
     1.0000   1.0000   1.0000   1.0000   0.0000

          k =-0.0833 0.0833-0.0833 (  3269 PWs)   bands (ev):

    -6.1950   5.2001   5.8741   5.8741   9.0700

     occupation numbers 
     1.0000   1.0000   1.0000   1.0000   0.0000

          k =-0.1667 0.1667-0.1667 (  3278 PWs)   bands (ev):

    -5.9119   3.6716   5.5679   5.5679   8.8822

     occupation numbers 
     1.0000   1.0000   1.0000   1.0000   0.0000

          k =-0.2500 0.2500-0.2500 (  3275 PWs)   bands (ev):

    -5.4522   2.0816   5.2519   5.2519   8.5821

     occupation numbers 
     1.0000   1.0000   1.0000   1.0000   0.0000

          k =-0.3333 0.3333-0.3333 (  3263 PWs)   bands (ev):

    -4.8469   0.6212   5.0026   5.0026   8.3246

     occupation numbers 
     1.0000   1.0000   1.0000   1.0000   0.0000

          k =-0.4167 0.4167-0.4167 (  3263 PWs)   bands (ev):

    -4.1949  -0.5576   4.8476   4.8476   8.1595

     occupation numbers 
     1.0000   1.0000   1.0000   1.0000   0.0000

          k = 0.5000-0.5000 0.5000 (  3274 PWs)   bands (ev):

    -3.8428  -1.0873   4.7954   4.7954   8.1033

     occupation numbers 
     1.0000   1.0000   1.0000   1.0000   0.0000

          k = 0.0000 0.1667 0.0000 (  3263 PWs)   bands (ev):

    -6.1631   5.3795   5.5939   5.5939   8.6969

     occupation numbers 
     1.0000   1.0000   1.0000   1.0000   0.0000

          k =-0.0833 0.2500-0.0833 (  3267 PWs)   bands (ev):

    -5.9420   4.1386   5.2266   5.4360   8.7158

     occupation numbers 
     1.0000   1.0000   1.0000   1.0000   0.0000

          k =-0.1667 0.3333-0.1667 (  3273 PWs)   bands (ev):

    -5.5396   2.5985   4.9044   5.1166   8.8779

     occupation numbers 
     1.0000   1.0000   1.0000   1.0000   0.0000

          k =-0.2500 0.4167-0.2500 (  3272 PWs)   bands (ev):

    -4.9775   1.1100   4.6852   4.7587   8.7831

     occupation numbers 
     1.0000   1.0000   1.0000   1.0000   0.0000

          k =-0.3333 0.5000-0.3333 (  3272 PWs)   bands (ev):

    -4.3207  -0.1721   4.4545   4.5888   8.6397

     occupation numbers 
     1.0000   1.0000   1.0000   1.0000   0.0000

          k = 0.5833-0.4167 0.5833 (  3259 PWs)   bands (ev):

    -3.8039  -0.9780   4.2429   4.6172   8.5727

     occupation numbers 
     1.0000   1.0000   1.0000   1.0000   0.0000

          k = 0.5000-0.3333 0.5000 (  3262 PWs)   bands (ev):

    -3.9314  -0.7916   4.1443   4.7622   8.6087

     occupation numbers 
     1.0000   1.0000   1.0000   1.0000   0.0000

          k = 0.4167-0.2500 0.4167 (  3261 PWs)   bands (ev):

    -4.5433   0.2247   4.1725   5.0073   8.7464

     occupation numbers 
     1.0000   1.0000   1.0000   1.0000   0.0000

          k = 0.3333-0.1667 0.3333 (  3266 PWs)   bands (ev):

    -5.1813   1.5923   4.3367   5.3243   8.9703

     occupation numbers 
     1.0000   1.0000   1.0000   1.0000   0.0000

          k = 0.2500-0.0833 0.2500 (  3279 PWs)   bands (ev):

    -5.6937   3.1001   4.6463   5.6583   9.2376

     occupation numbers 
     1.0000   1.0000   1.0000   1.0000   0.0000

          k = 0.1667-0.0000 0.1667 (  3275 PWs)   bands (ev):

    -6.0369   4.4793   5.1696   5.8946   9.2354

     occupation numbers 
     1.0000   1.0000   1.0000   1.0000   0.0000

          k = 0.0000 0.3333 0.0000 (  3259 PWs)   bands (ev):

    -5.7831   4.0552   4.8209   4.8209   8.1060

     occupation numbers 
     1.0000   1.0000   1.0000   1.0000   0.0000

          k =-0.0833 0.4167-0.0833 (  3264 PWs)   bands (ev):

    -5.4402   2.9287   4.4758   4.4885   8.1179

     occupation numbers 
     1.0000   1.0000   1.0000   1.0000   0.0000

          k =-0.1667 0.5000-0.1667 (  3265 PWs)   bands (ev):

    -4.9284   1.5653   4.0430   4.2476   8.3693

     occupation numbers 
     1.0000   1.0000   1.0000   1.0000   0.0000

          k =-0.2500 0.5833-0.2500 (  3270 PWs)   bands (ev):

    -4.2906   0.2774   3.5974   4.1578   8.4366

     occupation numbers 
     1.0000   1.0000   1.0000   1.0000   0.0000

          k = 0.6667-0.3333 0.6667 (  3267 PWs)   bands (ev):

    -3.6769  -0.7004   3.2428   4.2104   8.4852

     occupation numbers 
     1.0000   1.0000   1.0000   1.0000   0.0000

          k = 0.5833-0.2500 0.5833 (  3260 PWs)   bands (ev):

    -3.5562  -0.8684   3.0206   4.3976   8.6491

     occupation numbers 
     1.0000   1.0000   1.0000   1.0000   0.0000

          k = 0.5000-0.1667 0.5000 (  3264 PWs)   bands (ev):

    -4.0819  -0.0731   2.9597   4.6992   8.9380

     occupation numbers 
     1.0000   1.0000   1.0000   1.0000   0.0000

          k = 0.4167-0.0833 0.4167 (  3273 PWs)   bands (ev):

    -4.7374   1.1243   3.1044   5.0747   9.2966

     occupation numbers 
     1.0000   1.0000   1.0000   1.0000   0.0000

          k = 0.3333 0.0000 0.3333 (  3264 PWs)   bands (ev):

    -5.2953   2.3100   3.6034   5.4438   9.5813

     occupation numbers 
     1.0000   1.0000   1.0000   1.0000   0.0000

          k = 0.0000 0.5000 0.0000 (  3263 PWs)   bands (ev):

    -5.1565   2.5417   4.1017   4.1017   7.5209

     occupation numbers 
     1.0000   1.0000   1.0000   1.0000   0.0000

          k =-0.0833 0.5833-0.0833 (  3268 PWs)   bands (ev):

    -4.6988   1.5927   3.6405   3.8452   7.5984

     occupation numbers 
     1.0000   1.0000   1.0000   1.0000   0.0000

          k =-0.1667 0.6667-0.1667 (  3257 PWs)   bands (ev):

    -4.0953   0.5152   3.0094   3.7322   7.8302

     occupation numbers 
     1.0000   1.0000   1.0000   1.0000   0.0000

          k = 0.7500-0.2500 0.7500 (  3259 PWs)   bands (ev):

    -3.4398  -0.4563   2.4535   3.7702   7.9325

     occupation numbers 
     1.0000   1.0000   1.0000   1.0000   0.0000

          k = 0.6667-0.1667 0.6667 (  3249 PWs)   bands (ev):

    -3.0983  -0.8929   2.0799   3.9546   8.1257

     occupation numbers 
     1.0000   1.0000   1.0000   1.0000   0.0000

          k = 0.5833-0.0833 0.5833 (  3253 PWs)   bands (ev):

    -3.4941  -0.3741   1.9543   4.2676   8.4690

     occupation numbers 
     1.0000   1.0000   1.0000   1.0000   0.0000

          k = 0.5000 0.0000 0.5000 (  3250 PWs)   bands (ev):

    -4.1475   0.4859   2.2250   4.6692   8.9214

     occupation numbers 
     1.0000   1.0000   1.0000   1.0000   0.0000

          k = 0.0000 0.6667 0.0000 (  3270 PWs)   bands (ev):

    -4.2945   0.9897   3.5533   3.5533   7.1091

     occupation numbers 
     1.0000   1.0000   1.0000   1.0000   0.0000

          k =-0.0833 0.7500-0.0833 (  3266 PWs)   bands (ev):

    -3.7338   0.1682   3.0685   3.4042   7.2704

     occupation numbers 
     1.0000   1.0000   1.0000   1.0000   0.0000

          k = 0.8333-0.1667 0.8333 (  3259 PWs)   bands (ev):

    -3.0736  -0.6369   2.3344   3.4093   7.4581

     occupation numbers 
     1.0000   1.0000   1.0000   1.0000   0.0000

          k = 0.7500-0.0833 0.7500 (  3255 PWs)   bands (ev):

    -2.5797  -1.1538   1.7426   3.5676   7.6462

     occupation numbers 
     1.0000   1.0000   1.0000   1.0000   0.0000

          k = 0.6667-0.0000 0.6667 (  3236 PWs)   bands (ev):

    -2.8658  -0.8557   1.5367   3.8651   7.9889

     occupation numbers 
     1.0000   1.0000   1.0000   1.0000   0.0000

          k = 0.0000 0.8333 0.0000 (  3286 PWs)   bands (ev):

    -3.2153  -0.5271   3.2144   3.2144   6.9508

     occupation numbers 
     1.0000   1.0000   1.0000   1.0000   0.0000

          k = 0.9167-0.0833 0.9167 (  3278 PWs)   bands (ev):

    -2.5718  -1.2475   2.7863   3.1788   7.1579

     occupation numbers 
     1.0000   1.0000   1.0000   1.0000   0.0000

          k = 0.8333 0.0000 0.8333 (  3266 PWs)   bands (ev):

    -2.0917  -1.6724   2.1108   3.2998   7.3265

     occupation numbers 
     1.0000   1.0000   1.0000   1.0000   0.0000

          k = 0.0000-1.0000 0.0000 (  3282 PWs)   bands (ev):

    -1.9463  -1.9463   3.1000   3.1000   7.0943

     occupation numbers 
     1.0000   1.0000   1.0000   1.0000   0.0000

          k =-0.1667 0.3333 0.0000 (  3262 PWs)   bands (ev):

    -5.6603   3.3307   4.3898   5.3183   8.7395

     occupation numbers 
     1.0000   1.0000   1.0000   1.0000   0.0000

          k =-0.2500 0.4167-0.0833 (  3270 PWs)   bands (ev):

    -5.2028   2.0479   3.8542   5.0370   9.0387

     occupation numbers 
     1.0000   1.0000   1.0000   1.0000   0.0000

          k =-0.3333 0.5000-0.1667 (  3278 PWs)   bands (ev):

    -4.5994   0.6933   3.5840   4.6996   9.1226

     occupation numbers 
     1.0000   1.0000   1.0000   1.0000   0.0000

          k = 0.5833-0.4167 0.7500 (  3259 PWs)   bands (ev):

    -3.9462  -0.4453   3.4579   4.4424   9.0974

     occupation numbers 
     1.0000   1.0000   1.0000   1.0000   0.0000

          k = 0.5000-0.3333 0.6667 (  3254 PWs)   bands (ev):

    -3.5895  -0.9679   3.4235   4.3459   9.0907

     occupation numbers 
     1.0000   1.0000   1.0000   1.0000   0.0000

          k =-0.1667 0.5000 0.0000 (  3270 PWs)   bands (ev):

    -5.0406   2.1124   3.6728   4.3814   8.1799

     occupation numbers 
     1.0000   1.0000   1.0000   1.0000   0.0000

          k =-0.2500 0.5833-0.0833 (  3262 PWs)   bands (ev):

    -4.4821   1.0174   3.1335   4.0842   8.5262

     occupation numbers 
     1.0000   1.0000   1.0000   1.0000   0.0000

          k = 0.6667-0.3333 0.8333 (  3266 PWs)   bands (ev):

    -3.8254  -0.0866   2.7771   3.8636   8.6651

     occupation numbers 
     1.0000   1.0000   1.0000   1.0000   0.0000

          k = 0.5833-0.2500 0.7500 (  3258 PWs)   bands (ev):

    -3.3023  -0.8284   2.5270   3.8433   8.8048

     occupation numbers 
     1.0000   1.0000   1.0000   1.0000   0.0000

          k = 0.5000-0.1667 0.6667 (  3254 PWs)   bands (ev):

    -3.4453  -0.6318   2.4029   4.0216   9.0699

     occupation numbers 
     1.0000   1.0000   1.0000   1.0000   0.0000

          k = 0.4167-0.0833 0.5833 (  3261 PWs)   bands (ev):

    -4.0659   0.2878   2.4744   4.3478   9.4525

     occupation numbers 
     1.0000   1.0000   1.0000   1.0000   0.0000

          k = 0.3333 0.0000 0.5000 (  3272 PWs)   bands (ev):

    -4.6983   1.3094   2.8973   4.7385   9.6391

     occupation numbers 
     1.0000   1.0000   1.0000   1.0000   0.0000

          k =-0.1667 0.6667-0.0000 (  3267 PWs)   bands (ev):

    -4.1910   0.8037   3.1425   3.5697   7.7733

     occupation numbers 
     1.0000   1.0000   1.0000   1.0000   0.0000

          k = 0.7500-0.2500 0.9167 (  3263 PWs)   bands (ev):

    -3.5555  -0.0702   2.5495   3.3478   8.1227

     occupation numbers 
     1.0000   1.0000   1.0000   1.0000   0.0000

          k = 0.6667-0.1667 0.8333 (  3257 PWs)   bands (ev):

    -2.9359  -0.8209   2.0182   3.3563   8.2883

     occupation numbers 
     1.0000   1.0000   1.0000   1.0000   0.0000

          k = 0.5833-0.0833 0.7500 (  3258 PWs)   bands (ev):

    -2.8605  -0.8966   1.7207   3.5616   8.5574

     occupation numbers 
     1.0000   1.0000   1.0000   1.0000   0.0000

          k = 0.5000 0.0000 0.6667 (  3263 PWs)   bands (ev):

    -3.4257  -0.2787   1.8106   3.9166   8.9679

     occupation numbers 
     1.0000   1.0000   1.0000   1.0000   0.0000

          k = 0.8333-0.1667 1.0000 (  3278 PWs)   bands (ev):

    -3.1339  -0.5653   2.8441   3.0383   7.6005

     occupation numbers 
     1.0000   1.0000   1.0000   1.0000   0.0000

          k = 0.7500-0.0833 0.9167 (  3264 PWs)   bands (ev):

    -2.4735  -1.2386   2.2081   2.9964   7.9067

     occupation numbers 
     1.0000   1.0000   1.0000   1.0000   0.0000

          k = 0.6667 0.0000 0.8333 (  3257 PWs)   bands (ev):

    -2.3089  -1.3598   1.6995   3.2002   8.1548

     occupation numbers 
     1.0000   1.0000   1.0000   1.0000   0.0000

          k =-0.1667-1.0000-0.0000 (  3270 PWs)   bands (ev):

    -1.9059  -1.9059   2.8025   2.8025   7.7097

     occupation numbers 
     1.0000   1.0000   1.0000   1.0000   0.0000

          k = 0.6667-0.3333 1.0000 (  3253 PWs)   bands (ev):

    -3.8901   0.3215   2.4076   3.7008   9.2670

     occupation numbers 
     1.0000   1.0000   1.0000   1.0000   0.0000

          k = 0.5833-0.2500 0.9167 (  3261 PWs)   bands (ev):

    -3.2346  -0.4839   2.0531   3.3554   9.6500

     occupation numbers 
     1.0000   1.0000   1.0000   1.0000   0.0000

          k = 0.5000-0.1667 0.8333 (  3254 PWs)   bands (ev):

    -2.8550  -0.9354   1.9596   3.2217   9.7501

     occupation numbers 
     1.0000   1.0000   1.0000   1.0000   0.0000

          k = 0.6667-0.1667 1.0000 (  3261 PWs)   bands (ev):

    -2.9086  -0.7167   2.1965   2.8240   9.0915

     occupation numbers 
     1.0000   1.0000   1.0000   1.0000   0.0000

          k = 0.5833-0.0833 0.9167 (  3260 PWs)   bands (ev):

    -2.3586  -1.2475   1.8723   2.6679   9.4426

     occupation numbers 
     1.0000   1.0000   1.0000   1.0000   0.0000

          k = 0.5000 0.0000 0.8333 (  3263 PWs)   bands (ev):

    -2.6014  -1.0078   1.7451   2.8997   9.7467

     occupation numbers 
     1.0000   1.0000   1.0000   1.0000   0.0000

          k =-0.3333-1.0000 0.0000 (  3256 PWs)   bands (ev):

    -1.8192  -1.8192   2.3179   2.3179   9.1615

     occupation numbers 
     1.0000   1.0000   1.0000   1.0000   0.0000

          k =-0.5000-1.0000 0.0000 (  3268 PWs)   bands (ev):

    -1.7724  -1.7724   2.1074   2.1074  10.6610

     occupation numbers 
     1.0000   1.0000   1.0000   1.0000   0.0000

     highest occupied, lowest unoccupied level (ev):     6.0140    6.9508

!    total energy              =     -15.74996326 Ry
     estimated scf accuracy    <          6.8E-11 Ry

     The total energy is the sum of the following terms:
     one-electron contribution =       4.77687880 Ry
     hartree contribution      =       1.11061987 Ry
     xc contribution           =      -4.83980675 Ry
     ewald contribution        =     -16.79765518 Ry

     convergence has been achieved in   8 iterations
     Writing meta-gga kinetic term

     Writing all to output data dir ./tmp/Si.save/
     Writing meta-gga kinetic term

     init_run     :      4.71s CPU      5.08s WALL (       1 calls)
     electrons    :     38.40s CPU     63.46s WALL (       1 calls)

     Called by init_run:
     wfcinit      :      4.34s CPU      4.64s WALL (       1 calls)
     wfcinit:atom :      0.03s CPU      0.03s WALL (      72 calls)
     wfcinit:wfcr :      4.20s CPU      4.50s WALL (      72 calls)
     potinit      :      0.04s CPU      0.06s WALL (       1 calls)
     hinit0       :      0.25s CPU      0.27s WALL (       1 calls)

     Called by electrons:
     c_bands      :     32.33s CPU     57.05s WALL (       9 calls)
     sum_band     :      5.76s CPU      6.06s WALL (       9 calls)
     v_of_rho     :      0.31s CPU      0.34s WALL (       9 calls)
     v_h          :      0.01s CPU      0.01s WALL (       9 calls)
     v_xc_meta    :      0.30s CPU      0.34s WALL (       9 calls)
     mix_rho      :      0.03s CPU      0.03s WALL (       9 calls)

     Called by c_bands:
     init_us_2    :      0.26s CPU      0.27s WALL (    1368 calls)
     init_us_2:cp :      0.26s CPU      0.27s WALL (    1368 calls)
     cegterg      :     32.11s CPU     56.77s WALL (     648 calls)

     Called by sum_band:
     sum_band:wei :      0.00s CPU      0.00s WALL (       9 calls)
     sum_band:loo :      5.71s CPU      6.01s WALL (       9 calls)
     sum_band:buf :      0.01s CPU      0.02s WALL (     648 calls)
     sum_band:ini :      0.13s CPU      0.13s WALL (     648 calls)

     Called by *egterg:
     cdiaghg      :      0.11s CPU      0.11s WALL (    2248 calls)
     cegterg:over :      0.23s CPU      0.27s WALL (    1672 calls)
     cegterg:upda :      0.14s CPU      0.15s WALL (    1672 calls)
     cegterg:last :      0.18s CPU      0.19s WALL (    1447 calls)
     h_psi        :     35.40s CPU     60.27s WALL (    2392 calls)
     g_psi        :      0.03s CPU      0.04s WALL (    1672 calls)

     Called by h_psi:
     h_psi:calbec :      0.17s CPU      0.18s WALL (    2392 calls)
     vloc_psi     :      8.73s CPU     61.37s WALL (    2392 calls)
     add_vuspsi   :      0.14s CPU      0.14s WALL (    2392 calls)
     h_psi_meta   :     26.31s CPU     -1.46s WALL (    2392 calls)

     General routines
     calbec       :      0.16s CPU      0.17s WALL (    2392 calls)
     fft          :      0.26s CPU      0.28s WALL (     107 calls)
     ffts         :      0.01s CPU      0.01s WALL (      18 calls)
     fftw         :     35.69s CPU     60.56s WALL (   99008 calls)
     interpolate  :      0.00s CPU      0.00s WALL (       9 calls)

     Parallel routines

     PWSCF        :     43.16s CPU   1m 8.67s WALL


   This run was terminated on:  15:40:57  25May2023            

=------------------------------------------------------------------------------=
   JOB DONE.
=------------------------------------------------------------------------------=
